<VTKFile type="StructuredGrid" version="1.0" byte_order="LittleEndian" header_type="UInt64">
<StructuredGrid WholeExtent="0 9 0 9 0 0">
<Piece Extent="0 9 0 9 0 0">
<PointData Scalars="data">
<DataArray type="Float64" Name="data" format="ascii">
-2.3775711450519884e-04 2.3849861800626089e-03 4.5476097984007563e-03 5.3258167687249263e-03 6.0872505076932744e-03 6.0882028223821260e-03 5.3265109884529337e-03 4.5460246657397056e-03 2.3934279765883996e-03 -2.4055423468521573e-04 2.3807621630505147e-03 5.6458206529885827e-03 8.1076628323589819e-03 8.2118260270140544e-03 8.3321412669267493e-03 8.3301134415936402e-03 8.2282984761661449e-03 8.1063394603507217e-03 5.6425912066025577e-03 2.3913282995387947e-03 4.5522985174751571e-03 8.0986470472544647e-03 1.0615141929988220e-02 1.0022415713049692e-02 9.4348202688915965e-03 9.4443518453250705e-03 1.0021886681602032e-02 1.0625176114701608e-02 8.1135379627822728e-03 4.5550311359105590e-03 5.3119084023411992e-03 8.2205196928166000e-03 1.0027545789942627e-02 8.5439606709805209e-03 7.0788130833560736e-03 7.0732612375980393e-03 8.5579820694372862e-03 1.0020038036788331e-02 8.2233964038160943e-03 5.3260665904028767e-03 6.0770658501422721e-03 8.3337441618365916e-03 9.4395862610721394e-03 7.0770830777580661e-03 4.7089614930700399e-03 4.7091966961213122e-03 7.0788612252934580e-03 9.4428777816599092e-03 8.3333680103780273e-03 6.0887535051077617e-03 6.0905702357946338e-03 8.3321949044982309e-03 9.4287806409020687e-03 7.0670930827618165e-03 4.7206282930882283e-03 4.7091079691146363e-03 7.0808650049022665e-03 9.4339738419768771e-03 8.3449257592064265e-03 6.0802278843380582e-03 5.3249665364722533e-03 8.2148549025845286e-03 1.0025097770617929e-02 8.5598988905813255e-03 7.0777833372812713e-03 7.0726636844644112e-03 8.5455247898557768e-03 1.0033174056599436e-02 8.2110054666303042e-03 5.3116228673713971e-03 4.5566291984666966e-03 8.1021736406395994e-03 1.0616299699256291e-02 1.0035598394237295e-02 9.4331775045268223e-03 9.4417965310249746e-03 1.0020159324791266e-02 1.0628315928959743e-02 8.1015764963244530e-03 4.5550014496148934e-03 2.3967358283444413e-03 5.6450776639208992e-03 8.1032156021608962e-03 8.2175155906225334e-03 8.3447250312376452e-03 8.3412912221765105e-03 8.2259213670394082e-03 8.1066915909005569e-03 5.6351875391733915e-03 2.3826046548752109e-03 -2.4687446871624296e-04 2.3826067960133566e-03 4.5585158237664639e-03 5.3183981644453759e-03 6.0796059824684530e-03 6.0884447657215904e-03 5.3261756049172897e-03 4.5461145755865537e-03 2.3987030201661780e-03 -2.4831125505196894e-04 
</DataArray>
</PointData>
<CellData></CellData>
<Points>
<DataArray type="Float64" Name="Points" NumberOfComponents="3" format="ascii">
-0.818182 -0.818182 0.000000 -0.818182 -0.636364 0.000000 -0.818182 -0.454545 0.000000 -0.818182 -0.272727 0.000000 -0.818182 -0.090909 0.000000 -0.818182 0.090909 0.000000 -0.818182 0.272727 0.000000 -0.818182 0.454545 0.000000 -0.818182 0.636364 0.000000 -0.818182 0.818182 0.000000 -0.636364 -0.818182 0.000000 -0.636364 -0.636364 0.000000 -0.636364 -0.454545 0.000000 -0.636364 -0.272727 0.000000 -0.636364 -0.090909 0.000000 -0.636364 0.090909 0.000000 -0.636364 0.272727 0.000000 -0.636364 0.454545 0.000000 -0.636364 0.636364 0.000000 -0.636364 0.818182 0.000000 -0.454545 -0.818182 0.000000 -0.454545 -0.636364 0.000000 -0.454545 -0.454545 0.000000 -0.454545 -0.272727 0.000000 -0.454545 -0.090909 0.000000 -0.454545 0.090909 0.000000 -0.454545 0.272727 0.000000 -0.454545 0.454545 0.000000 -0.454545 0.636364 0.000000 -0.454545 0.818182 0.000000 -0.272727 -0.818182 0.000000 -0.272727 -0.636364 0.000000 -0.272727 -0.454545 0.000000 -0.272727 -0.272727 0.000000 -0.272727 -0.090909 0.000000 -0.272727 0.090909 0.000000 -0.272727 0.272727 0.000000 -0.272727 0.454545 0.000000 -0.272727 0.636364 0.000000 -0.272727 0.818182 0.000000 -0.090909 -0.818182 0.000000 -0.090909 -0.636364 0.000000 -0.090909 -0.454545 0.000000 -0.090909 -0.272727 0.000000 -0.090909 -0.090909 0.000000 -0.090909 0.090909 0.000000 -0.090909 0.272727 0.000000 -0.090909 0.454545 0.000000 -0.090909 0.636364 0.000000 -0.090909 0.818182 0.000000 0.090909 -0.818182 0.000000 0.090909 -0.636364 0.000000 0.090909 -0.454545 0.000000 0.090909 -0.272727 0.000000 0.090909 -0.090909 0.000000 0.090909 0.090909 0.000000 0.090909 0.272727 0.000000 0.090909 0.454545 0.000000 0.090909 0.636364 0.000000 0.090909 0.818182 0.000000 0.272727 -0.818182 0.000000 0.272727 -0.636364 0.000000 0.272727 -0.454545 0.000000 0.272727 -0.272727 0.000000 0.272727 -0.090909 0.000000 0.272727 0.090909 0.000000 0.272727 0.272727 0.000000 0.272727 0.454545 0.000000 0.272727 0.636364 0.000000 0.272727 0.818182 0.000000 0.454545 -0.818182 0.000000 0.454545 -0.636364 0.000000 0.454545 -0.454545 0.000000 0.454545 -0.272727 0.000000 0.454545 -0.090909 0.000000 0.454545 0.090909 0.000000 0.454545 0.272727 0.000000 0.454545 0.454545 0.000000 0.454545 0.636364 0.000000 0.454545 0.818182 0.000000 0.636364 -0.818182 0.000000 0.636364 -0.636364 0.000000 0.636364 -0.454545 0.000000 0.636364 -0.272727 0.000000 0.636364 -0.090909 0.000000 0.636364 0.090909 0.000000 0.636364 0.272727 0.000000 0.636364 0.454545 0.000000 0.636364 0.636364 0.000000 0.636364 0.818182 0.000000 0.818182 -0.818182 0.000000 0.818182 -0.636364 0.000000 0.818182 -0.454545 0.000000 0.818182 -0.272727 0.000000 0.818182 -0.090909 0.000000 0.818182 0.090909 0.000000 0.818182 0.272727 0.000000 0.818182 0.454545 0.000000 0.818182 0.636364 0.000000 0.818182 0.818182 0.000000 
</DataArray>
</Points>
</Piece>
</StructuredGrid>
</VTKFile>
