<VTKFile type="StructuredGrid" version="1.0" byte_order="LittleEndian" header_type="UInt64">
<StructuredGrid WholeExtent="0 9 0 9 0 0">
<Piece Extent="0 9 0 9 0 0">
<PointData Scalars="data">
<DataArray type="Float64" Name="data" format="ascii">
2.8109290355984695e-06 1.3062780189706029e-05 -3.7842285894202803e-05 -2.2500122361632089e-04 -4.1617510730885458e-04 -4.2434511147123092e-04 -2.3767680956510940e-04 -3.1728876702836716e-05 4.1909103372017951e-06 1.5381315479706277e-06 1.7550783538454520e-05 2.5917190968914066e-05 -5.5902568701022087e-05 -3.5964732782936331e-04 -6.6496044169131235e-04 -6.6376020268280685e-04 -3.7157849918666072e-04 -5.9811615369925366e-05 2.2493464527149493e-05 1.1227003348469477e-05 -2.2819663370094726e-05 -5.1447922473784165e-05 4.0647037159753355e-05 5.5092484450973986e-04 1.0364076194297157e-03 1.0372205416400244e-03 5.3892784827507651e-04 4.2492844733241499e-05 -4.8609006183332934e-05 -4.0958490589825040e-05 -2.2843116325127187e-04 -3.6623575753054260e-04 5.4323775129691641e-04 4.5618973742942558e-03 8.5881561400051546e-03 8.5942627040618801e-03 4.5780904499608211e-03 5.4265677154687682e-04 -3.7152696464957523e-04 -2.2320423594682662e-04 -4.3209753207173389e-04 -6.6521099137180221e-04 1.0402072306644799e-03 8.6009767269794920e-03 1.6163070095232681e-02 1.6151615106142506e-02 8.5968031928058981e-03 1.0444653584890063e-03 -6.6219983451638767e-04 -4.2639159889543908e-04 -4.2535828473916289e-04 -6.7524706216067583e-04 1.0390683505786247e-03 8.5873555145858753e-03 1.6155395560665531e-02 1.6160310284491136e-02 8.6042292823367197e-03 1.0443878059998152e-03 -6.7456982022262655e-04 -4.3199794630388984e-04 -2.3295481853713090e-04 -3.6436163948767847e-04 5.4748416868440042e-04 4.5648322479913952e-03 8.5929523877238002e-03 8.5995335997304297e-03 4.5735168928419945e-03 5.4114739967247867e-04 -3.6960978694264204e-04 -2.2172141120645867e-04 -2.3353634892978639e-05 -6.3354498316314350e-05 4.7258972736731069e-05 5.4463304566931196e-04 1.0374326783386808e-03 1.0467300625553819e-03 5.3744938068969717e-04 5.1597060570396091e-05 -5.3456643127321646e-05 -2.6350636403421196e-05 1.3412610524281676e-05 1.1610786413002110e-05 -4.8529972964179679e-05 -3.6971822752443858e-04 -6.7068306439561855e-04 -6.6133148432168457e-04 -3.6932126210337138e-04 -5.9081628548235987e-05 1.0270205023701831e-05 1.2997014178834589e-05 9.1214952212286669e-06 2.2368893149149427e-05 -3.7915290909068507e-05 -2.2047515985617201e-04 -4.1762767294749992e-04 -4.2460992854879325e-04 -2.2227255225498710e-04 -3.3055966833705802e-05 1.6487737402636084e-05 1.6447907003111238e-05 
</DataArray>
</PointData>
<CellData></CellData>
<Points>
<DataArray type="Float64" Name="Points" NumberOfComponents="3" format="ascii">
-0.818182 -0.818182 0.000000 -0.818182 -0.636364 0.000000 -0.818182 -0.454545 0.000000 -0.818182 -0.272727 0.000000 -0.818182 -0.090909 0.000000 -0.818182 0.090909 0.000000 -0.818182 0.272727 0.000000 -0.818182 0.454545 0.000000 -0.818182 0.636364 0.000000 -0.818182 0.818182 0.000000 -0.636364 -0.818182 0.000000 -0.636364 -0.636364 0.000000 -0.636364 -0.454545 0.000000 -0.636364 -0.272727 0.000000 -0.636364 -0.090909 0.000000 -0.636364 0.090909 0.000000 -0.636364 0.272727 0.000000 -0.636364 0.454545 0.000000 -0.636364 0.636364 0.000000 -0.636364 0.818182 0.000000 -0.454545 -0.818182 0.000000 -0.454545 -0.636364 0.000000 -0.454545 -0.454545 0.000000 -0.454545 -0.272727 0.000000 -0.454545 -0.090909 0.000000 -0.454545 0.090909 0.000000 -0.454545 0.272727 0.000000 -0.454545 0.454545 0.000000 -0.454545 0.636364 0.000000 -0.454545 0.818182 0.000000 -0.272727 -0.818182 0.000000 -0.272727 -0.636364 0.000000 -0.272727 -0.454545 0.000000 -0.272727 -0.272727 0.000000 -0.272727 -0.090909 0.000000 -0.272727 0.090909 0.000000 -0.272727 0.272727 0.000000 -0.272727 0.454545 0.000000 -0.272727 0.636364 0.000000 -0.272727 0.818182 0.000000 -0.090909 -0.818182 0.000000 -0.090909 -0.636364 0.000000 -0.090909 -0.454545 0.000000 -0.090909 -0.272727 0.000000 -0.090909 -0.090909 0.000000 -0.090909 0.090909 0.000000 -0.090909 0.272727 0.000000 -0.090909 0.454545 0.000000 -0.090909 0.636364 0.000000 -0.090909 0.818182 0.000000 0.090909 -0.818182 0.000000 0.090909 -0.636364 0.000000 0.090909 -0.454545 0.000000 0.090909 -0.272727 0.000000 0.090909 -0.090909 0.000000 0.090909 0.090909 0.000000 0.090909 0.272727 0.000000 0.090909 0.454545 0.000000 0.090909 0.636364 0.000000 0.090909 0.818182 0.000000 0.272727 -0.818182 0.000000 0.272727 -0.636364 0.000000 0.272727 -0.454545 0.000000 0.272727 -0.272727 0.000000 0.272727 -0.090909 0.000000 0.272727 0.090909 0.000000 0.272727 0.272727 0.000000 0.272727 0.454545 0.000000 0.272727 0.636364 0.000000 0.272727 0.818182 0.000000 0.454545 -0.818182 0.000000 0.454545 -0.636364 0.000000 0.454545 -0.454545 0.000000 0.454545 -0.272727 0.000000 0.454545 -0.090909 0.000000 0.454545 0.090909 0.000000 0.454545 0.272727 0.000000 0.454545 0.454545 0.000000 0.454545 0.636364 0.000000 0.454545 0.818182 0.000000 0.636364 -0.818182 0.000000 0.636364 -0.636364 0.000000 0.636364 -0.454545 0.000000 0.636364 -0.272727 0.000000 0.636364 -0.090909 0.000000 0.636364 0.090909 0.000000 0.636364 0.272727 0.000000 0.636364 0.454545 0.000000 0.636364 0.636364 0.000000 0.636364 0.818182 0.000000 0.818182 -0.818182 0.000000 0.818182 -0.636364 0.000000 0.818182 -0.454545 0.000000 0.818182 -0.272727 0.000000 0.818182 -0.090909 0.000000 0.818182 0.090909 0.000000 0.818182 0.272727 0.000000 0.818182 0.454545 0.000000 0.818182 0.636364 0.000000 0.818182 0.818182 0.000000 
</DataArray>
</Points>
</Piece>
</StructuredGrid>
</VTKFile>
