<VTKFile type="StructuredGrid" version="1.0" byte_order="LittleEndian" header_type="UInt64">
<StructuredGrid WholeExtent="0 9 0 9 0 0">
<Piece Extent="0 9 0 9 0 0">
<PointData Scalars="data">
<DataArray type="Float64" Name="data" format="ascii">
2.4856054926385407e-03 2.7327314875278592e-03 2.7971190234089612e-03 2.3050125021848379e-03 1.8216705742115352e-03 1.8164576066174493e-03 2.3181820414592291e-03 2.7978271799796329e-03 2.7450218594382335e-03 2.4948273286605578e-03 2.7415294031578425e-03 2.7719938554035301e-03 2.7044619957174456e-03 2.3352584321569979e-03 1.9871486013090973e-03 1.9945091048319441e-03 2.3412741364434312e-03 2.6978362929690686e-03 2.7701629440185708e-03 2.7369207600467364e-03 2.7964451756680628e-03 2.7008146081435960e-03 2.5416575472470889e-03 2.2987010176535321e-03 2.0427566124013559e-03 2.0427792840993345e-03 2.2895736872369610e-03 2.5564413059687551e-03 2.6898149496198793e-03 2.8098433472589584e-03 2.3188035311913382e-03 2.3494295562866804e-03 2.2969104836291902e-03 1.9927148778223712e-03 1.6947931184054057e-03 1.6939737104048537e-03 1.9885139335500727e-03 2.2983560126209135e-03 2.3513344189979215e-03 2.3082228066180297e-03 1.8214108996993086e-03 1.9875147782170868e-03 2.0360390304382304e-03 1.7062770765943318e-03 1.3496153741204197e-03 1.3520937722397294e-03 1.7001861578175869e-03 2.0288281110304512e-03 1.9927409500397905e-03 1.8100204408144870e-03 1.8189284082095248e-03 1.9807984250832609e-03 2.0281617860798107e-03 1.7012636108245671e-03 1.3683842824853097e-03 1.3641005844462115e-03 1.6910893543552539e-03 2.0406780798051423e-03 1.9836493781129421e-03 1.8124739087211200e-03 2.3164661822517893e-03 2.3445859101287108e-03 2.2911584685053731e-03 1.9987699716928417e-03 1.6949727169906649e-03 1.6888624990866522e-03 1.9930751959919774e-03 2.2869236304642413e-03 2.3447635337530046e-03 2.3107371185079168e-03 2.7944489479776952e-03 2.6862670799992841e-03 2.5493907688010692e-03 2.2888117931831502e-03 2.0409660685437566e-03 2.0296491014122264e-03 2.2959903037831093e-03 2.5572611344210480e-03 2.6888977674107777e-03 2.8033412311493588e-03 2.7458359903673487e-03 2.7601947961675148e-03 2.6899948739638108e-03 2.3485105346494387e-03 1.9964227720010871e-03 1.9801088178749960e-03 2.3419279658851155e-03 2.6923066514869800e-03 2.7588120549140857e-03 2.7376721411841989e-03 2.4884619010572869e-03 2.7494050949065439e-03 2.8045370705834113e-03 2.3163380262556897e-03 1.8113061009321161e-03 1.8186005929034280e-03 2.3030726241529695e-03 2.7989460294776170e-03 2.7388187453723941e-03 2.4861915584429269e-03 
</DataArray>
</PointData>
<CellData></CellData>
<Points>
<DataArray type="Float64" Name="Points" NumberOfComponents="3" format="ascii">
-0.818182 -0.818182 0.000000 -0.818182 -0.636364 0.000000 -0.818182 -0.454545 0.000000 -0.818182 -0.272727 0.000000 -0.818182 -0.090909 0.000000 -0.818182 0.090909 0.000000 -0.818182 0.272727 0.000000 -0.818182 0.454545 0.000000 -0.818182 0.636364 0.000000 -0.818182 0.818182 0.000000 -0.636364 -0.818182 0.000000 -0.636364 -0.636364 0.000000 -0.636364 -0.454545 0.000000 -0.636364 -0.272727 0.000000 -0.636364 -0.090909 0.000000 -0.636364 0.090909 0.000000 -0.636364 0.272727 0.000000 -0.636364 0.454545 0.000000 -0.636364 0.636364 0.000000 -0.636364 0.818182 0.000000 -0.454545 -0.818182 0.000000 -0.454545 -0.636364 0.000000 -0.454545 -0.454545 0.000000 -0.454545 -0.272727 0.000000 -0.454545 -0.090909 0.000000 -0.454545 0.090909 0.000000 -0.454545 0.272727 0.000000 -0.454545 0.454545 0.000000 -0.454545 0.636364 0.000000 -0.454545 0.818182 0.000000 -0.272727 -0.818182 0.000000 -0.272727 -0.636364 0.000000 -0.272727 -0.454545 0.000000 -0.272727 -0.272727 0.000000 -0.272727 -0.090909 0.000000 -0.272727 0.090909 0.000000 -0.272727 0.272727 0.000000 -0.272727 0.454545 0.000000 -0.272727 0.636364 0.000000 -0.272727 0.818182 0.000000 -0.090909 -0.818182 0.000000 -0.090909 -0.636364 0.000000 -0.090909 -0.454545 0.000000 -0.090909 -0.272727 0.000000 -0.090909 -0.090909 0.000000 -0.090909 0.090909 0.000000 -0.090909 0.272727 0.000000 -0.090909 0.454545 0.000000 -0.090909 0.636364 0.000000 -0.090909 0.818182 0.000000 0.090909 -0.818182 0.000000 0.090909 -0.636364 0.000000 0.090909 -0.454545 0.000000 0.090909 -0.272727 0.000000 0.090909 -0.090909 0.000000 0.090909 0.090909 0.000000 0.090909 0.272727 0.000000 0.090909 0.454545 0.000000 0.090909 0.636364 0.000000 0.090909 0.818182 0.000000 0.272727 -0.818182 0.000000 0.272727 -0.636364 0.000000 0.272727 -0.454545 0.000000 0.272727 -0.272727 0.000000 0.272727 -0.090909 0.000000 0.272727 0.090909 0.000000 0.272727 0.272727 0.000000 0.272727 0.454545 0.000000 0.272727 0.636364 0.000000 0.272727 0.818182 0.000000 0.454545 -0.818182 0.000000 0.454545 -0.636364 0.000000 0.454545 -0.454545 0.000000 0.454545 -0.272727 0.000000 0.454545 -0.090909 0.000000 0.454545 0.090909 0.000000 0.454545 0.272727 0.000000 0.454545 0.454545 0.000000 0.454545 0.636364 0.000000 0.454545 0.818182 0.000000 0.636364 -0.818182 0.000000 0.636364 -0.636364 0.000000 0.636364 -0.454545 0.000000 0.636364 -0.272727 0.000000 0.636364 -0.090909 0.000000 0.636364 0.090909 0.000000 0.636364 0.272727 0.000000 0.636364 0.454545 0.000000 0.636364 0.636364 0.000000 0.636364 0.818182 0.000000 0.818182 -0.818182 0.000000 0.818182 -0.636364 0.000000 0.818182 -0.454545 0.000000 0.818182 -0.272727 0.000000 0.818182 -0.090909 0.000000 0.818182 0.090909 0.000000 0.818182 0.272727 0.000000 0.818182 0.454545 0.000000 0.818182 0.636364 0.000000 0.818182 0.818182 0.000000 
</DataArray>
</Points>
</Piece>
</StructuredGrid>
</VTKFile>
