<VTKFile type="StructuredGrid" version="1.0" byte_order="LittleEndian" header_type="UInt64">
<StructuredGrid WholeExtent="0 9 0 9 0 0">
<Piece Extent="0 9 0 9 0 0">
<PointData Scalars="data">
<DataArray type="Float64" Name="data" format="ascii">
5.2384964249447092e-03 2.8648442034507030e-03 7.4943847652272737e-04 -5.3478026856308551e-04 -1.8157083046038509e-03 -1.8035604444920782e-03 -5.3396847510135226e-04 7.4666573119302083e-04 2.8543294765517127e-03 5.2469182819276684e-03 2.8689790791412927e-03 -2.6441440853096977e-04 -3.0091513372830507e-03 -4.6323538651959865e-03 -6.2717273200289967e-03 -6.2676558704116841e-03 -4.6360526509856654e-03 -2.9907511475653027e-03 -2.4802092567111631e-04 2.8526726169829171e-03 7.5180364411684742e-04 -2.9914396254694213e-03 -6.1313925827031508e-03 -7.4398216705656864e-03 -8.7361505993446258e-03 -8.7516895625261507e-03 -7.4443307358426697e-03 -6.1455353484084580e-03 -3.0093329988934506e-03 7.5607976697417568e-04 -5.2584825138492653e-04 -4.6302513005049267e-03 -7.4473138436213365e-03 -6.3580576615048130e-03 -5.2758652876452013e-03 -5.2742727850224958e-03 -6.3533331520250593e-03 -7.4505726667256807e-03 -4.6289944779456709e-03 -5.3759736213145905e-04 -1.7992510937644393e-03 -6.2697428955720714e-03 -8.7383932829553680e-03 -5.2667971690001265e-03 -1.7923027857360435e-03 -1.7993443231253715e-03 -5.2673338141741508e-03 -8.7442920069349846e-03 -6.2650880457650630e-03 -1.8066634704180585e-03 -1.8043177980086110e-03 -6.2669662236893315e-03 -8.7460648796217188e-03 -5.2687519999760953e-03 -1.8018972320859995e-03 -1.7922491390562146e-03 -5.2779438277823628e-03 -8.7526384887076161e-03 -6.2673548408281113e-03 -1.8054363407954083e-03 -5.2392996128290020e-04 -4.6344177695437005e-03 -7.4373784154448033e-03 -6.3552841143509568e-03 -5.2646564317308554e-03 -5.2731909211794154e-03 -6.3593515581576070e-03 -7.4406541993242105e-03 -4.6393613329962814e-03 -5.2736407649368986e-04 7.5732660895184403e-04 -2.9936182339541785e-03 -6.1429043624245672e-03 -7.4333940026166962e-03 -8.7419294528270144e-03 -8.7363338462384896e-03 -7.4341958058961590e-03 -6.1286968173464088e-03 -3.0073549175998354e-03 7.5304206252271421e-04 2.8518728517347926e-03 -2.6312337440197495e-04 -3.0029947111625227e-03 -4.6290873915843756e-03 -6.2717041153500207e-03 -6.2669347397719469e-03 -4.6400090042183493e-03 -2.9906048107502135e-03 -2.5541179352261934e-04 2.8655887989662578e-03 5.2408210506559791e-03 2.8526895556120800e-03 7.4670984157701925e-04 -5.3077435974989082e-04 -1.8046457742369613e-03 -1.8162758932396977e-03 -5.2145842768382773e-04 7.5695213253501939e-04 2.8531134214685246e-03 5.2382993606564553e-03 
</DataArray>
</PointData>
<CellData></CellData>
<Points>
<DataArray type="Float64" Name="Points" NumberOfComponents="3" format="ascii">
-0.818182 -0.818182 0.000000 -0.818182 -0.636364 0.000000 -0.818182 -0.454545 0.000000 -0.818182 -0.272727 0.000000 -0.818182 -0.090909 0.000000 -0.818182 0.090909 0.000000 -0.818182 0.272727 0.000000 -0.818182 0.454545 0.000000 -0.818182 0.636364 0.000000 -0.818182 0.818182 0.000000 -0.636364 -0.818182 0.000000 -0.636364 -0.636364 0.000000 -0.636364 -0.454545 0.000000 -0.636364 -0.272727 0.000000 -0.636364 -0.090909 0.000000 -0.636364 0.090909 0.000000 -0.636364 0.272727 0.000000 -0.636364 0.454545 0.000000 -0.636364 0.636364 0.000000 -0.636364 0.818182 0.000000 -0.454545 -0.818182 0.000000 -0.454545 -0.636364 0.000000 -0.454545 -0.454545 0.000000 -0.454545 -0.272727 0.000000 -0.454545 -0.090909 0.000000 -0.454545 0.090909 0.000000 -0.454545 0.272727 0.000000 -0.454545 0.454545 0.000000 -0.454545 0.636364 0.000000 -0.454545 0.818182 0.000000 -0.272727 -0.818182 0.000000 -0.272727 -0.636364 0.000000 -0.272727 -0.454545 0.000000 -0.272727 -0.272727 0.000000 -0.272727 -0.090909 0.000000 -0.272727 0.090909 0.000000 -0.272727 0.272727 0.000000 -0.272727 0.454545 0.000000 -0.272727 0.636364 0.000000 -0.272727 0.818182 0.000000 -0.090909 -0.818182 0.000000 -0.090909 -0.636364 0.000000 -0.090909 -0.454545 0.000000 -0.090909 -0.272727 0.000000 -0.090909 -0.090909 0.000000 -0.090909 0.090909 0.000000 -0.090909 0.272727 0.000000 -0.090909 0.454545 0.000000 -0.090909 0.636364 0.000000 -0.090909 0.818182 0.000000 0.090909 -0.818182 0.000000 0.090909 -0.636364 0.000000 0.090909 -0.454545 0.000000 0.090909 -0.272727 0.000000 0.090909 -0.090909 0.000000 0.090909 0.090909 0.000000 0.090909 0.272727 0.000000 0.090909 0.454545 0.000000 0.090909 0.636364 0.000000 0.090909 0.818182 0.000000 0.272727 -0.818182 0.000000 0.272727 -0.636364 0.000000 0.272727 -0.454545 0.000000 0.272727 -0.272727 0.000000 0.272727 -0.090909 0.000000 0.272727 0.090909 0.000000 0.272727 0.272727 0.000000 0.272727 0.454545 0.000000 0.272727 0.636364 0.000000 0.272727 0.818182 0.000000 0.454545 -0.818182 0.000000 0.454545 -0.636364 0.000000 0.454545 -0.454545 0.000000 0.454545 -0.272727 0.000000 0.454545 -0.090909 0.000000 0.454545 0.090909 0.000000 0.454545 0.272727 0.000000 0.454545 0.454545 0.000000 0.454545 0.636364 0.000000 0.454545 0.818182 0.000000 0.636364 -0.818182 0.000000 0.636364 -0.636364 0.000000 0.636364 -0.454545 0.000000 0.636364 -0.272727 0.000000 0.636364 -0.090909 0.000000 0.636364 0.090909 0.000000 0.636364 0.272727 0.000000 0.636364 0.454545 0.000000 0.636364 0.636364 0.000000 0.636364 0.818182 0.000000 0.818182 -0.818182 0.000000 0.818182 -0.636364 0.000000 0.818182 -0.454545 0.000000 0.818182 -0.272727 0.000000 0.818182 -0.090909 0.000000 0.818182 0.090909 0.000000 0.818182 0.272727 0.000000 0.818182 0.454545 0.000000 0.818182 0.636364 0.000000 0.818182 0.818182 0.000000 
</DataArray>
</Points>
</Piece>
</StructuredGrid>
</VTKFile>
