<VTKFile type="StructuredGrid" version="1.0" byte_order="LittleEndian" header_type="UInt64">
<StructuredGrid WholeExtent="0 9 0 9 0 0">
<Piece Extent="0 9 0 9 0 0">
<PointData Scalars="data">
<DataArray type="Float64" Name="data" format="ascii">
6.1572348413100253e-03 5.8596554351833183e-03 5.6649494286940194e-03 5.7439751172026808e-03 5.8486561417849655e-03 5.8333015126417025e-03 5.7620894360566541e-03 5.6663636782123836e-03 5.8598665083934194e-03 6.1660590365053324e-03 5.8596608225280475e-03 4.6859293557287036e-03 3.9568459796764915e-03 4.5282593656693184e-03 5.1147332860483992e-03 5.1098140405275508e-03 4.5304334253661056e-03 3.9511678568374415e-03 4.6776307416234774e-03 5.8592670929307911e-03 5.6641847254893865e-03 3.9408647859660376e-03 2.8762350528312337e-03 3.7683541240112130e-03 4.6592753585595779e-03 4.6489662349733099e-03 3.7635657709662183e-03 2.8914877687960068e-03 3.9575796776597557e-03 5.6688581537689851e-03 5.7517460802649113e-03 4.5318090260896412e-03 3.7668905811598118e-03 4.3979515937617192e-03 5.0316155993589146e-03 5.0326068896067435e-03 4.4077434157137945e-03 3.7603743683935209e-03 4.5317147527758617e-03 5.7509701116851492e-03 5.8332900363114821e-03 5.1016136414405271e-03 4.6472403771154859e-03 5.0304630710396288e-03 5.4172252244126659e-03 5.4154672984939502e-03 5.0224293148336732e-03 4.6486482762465430e-03 5.1075070929150132e-03 5.8389421617134653e-03 5.8353901373220957e-03 5.1054355677136861e-03 4.6429370830952136e-03 5.0374847003366386e-03 5.4219395756514438e-03 5.4226708749181137e-03 5.0293053979625279e-03 4.6457477726315243e-03 5.1085029164793221e-03 5.8366416754712380e-03 5.7530256289582242e-03 4.5301189370227819e-03 3.7733876271245229e-03 4.3929371094142810e-03 5.0327286498366404e-03 5.0336698853684974e-03 4.4034042373923684e-03 3.7742963601218290e-03 4.5246900493566191e-03 5.7575567768852224e-03 5.6610853189341340e-03 3.9494181406148831e-03 2.8856151689437537e-03 3.7697573627702209e-03 4.6426130289894518e-03 4.6485903946232032e-03 3.7610511318589934e-03 2.8818642687380614e-03 3.9528594544427495e-03 5.6603546434245960e-03 5.8568837578722157e-03 4.6853460655376872e-03 3.9448894569934084e-03 4.5292525827420249e-03 5.1082872085100308e-03 5.0990087438752994e-03 4.5203236709675321e-03 3.9493013238276068e-03 4.6796224400201441e-03 5.8563474785899919e-03 6.1725172851319924e-03 5.8720699530177538e-03 5.6639678756435878e-03 5.7595684221633976e-03 5.8457452363241732e-03 5.8518213949859078e-03 5.7460530449561916e-03 5.6587352830457360e-03 5.8669438890779141e-03 6.1556945264238157e-03 
</DataArray>
</PointData>
<CellData></CellData>
<Points>
<DataArray type="Float64" Name="Points" NumberOfComponents="3" format="ascii">
-0.818182 -0.818182 0.000000 -0.818182 -0.636364 0.000000 -0.818182 -0.454545 0.000000 -0.818182 -0.272727 0.000000 -0.818182 -0.090909 0.000000 -0.818182 0.090909 0.000000 -0.818182 0.272727 0.000000 -0.818182 0.454545 0.000000 -0.818182 0.636364 0.000000 -0.818182 0.818182 0.000000 -0.636364 -0.818182 0.000000 -0.636364 -0.636364 0.000000 -0.636364 -0.454545 0.000000 -0.636364 -0.272727 0.000000 -0.636364 -0.090909 0.000000 -0.636364 0.090909 0.000000 -0.636364 0.272727 0.000000 -0.636364 0.454545 0.000000 -0.636364 0.636364 0.000000 -0.636364 0.818182 0.000000 -0.454545 -0.818182 0.000000 -0.454545 -0.636364 0.000000 -0.454545 -0.454545 0.000000 -0.454545 -0.272727 0.000000 -0.454545 -0.090909 0.000000 -0.454545 0.090909 0.000000 -0.454545 0.272727 0.000000 -0.454545 0.454545 0.000000 -0.454545 0.636364 0.000000 -0.454545 0.818182 0.000000 -0.272727 -0.818182 0.000000 -0.272727 -0.636364 0.000000 -0.272727 -0.454545 0.000000 -0.272727 -0.272727 0.000000 -0.272727 -0.090909 0.000000 -0.272727 0.090909 0.000000 -0.272727 0.272727 0.000000 -0.272727 0.454545 0.000000 -0.272727 0.636364 0.000000 -0.272727 0.818182 0.000000 -0.090909 -0.818182 0.000000 -0.090909 -0.636364 0.000000 -0.090909 -0.454545 0.000000 -0.090909 -0.272727 0.000000 -0.090909 -0.090909 0.000000 -0.090909 0.090909 0.000000 -0.090909 0.272727 0.000000 -0.090909 0.454545 0.000000 -0.090909 0.636364 0.000000 -0.090909 0.818182 0.000000 0.090909 -0.818182 0.000000 0.090909 -0.636364 0.000000 0.090909 -0.454545 0.000000 0.090909 -0.272727 0.000000 0.090909 -0.090909 0.000000 0.090909 0.090909 0.000000 0.090909 0.272727 0.000000 0.090909 0.454545 0.000000 0.090909 0.636364 0.000000 0.090909 0.818182 0.000000 0.272727 -0.818182 0.000000 0.272727 -0.636364 0.000000 0.272727 -0.454545 0.000000 0.272727 -0.272727 0.000000 0.272727 -0.090909 0.000000 0.272727 0.090909 0.000000 0.272727 0.272727 0.000000 0.272727 0.454545 0.000000 0.272727 0.636364 0.000000 0.272727 0.818182 0.000000 0.454545 -0.818182 0.000000 0.454545 -0.636364 0.000000 0.454545 -0.454545 0.000000 0.454545 -0.272727 0.000000 0.454545 -0.090909 0.000000 0.454545 0.090909 0.000000 0.454545 0.272727 0.000000 0.454545 0.454545 0.000000 0.454545 0.636364 0.000000 0.454545 0.818182 0.000000 0.636364 -0.818182 0.000000 0.636364 -0.636364 0.000000 0.636364 -0.454545 0.000000 0.636364 -0.272727 0.000000 0.636364 -0.090909 0.000000 0.636364 0.090909 0.000000 0.636364 0.272727 0.000000 0.636364 0.454545 0.000000 0.636364 0.636364 0.000000 0.636364 0.818182 0.000000 0.818182 -0.818182 0.000000 0.818182 -0.636364 0.000000 0.818182 -0.454545 0.000000 0.818182 -0.272727 0.000000 0.818182 -0.090909 0.000000 0.818182 0.090909 0.000000 0.818182 0.272727 0.000000 0.818182 0.454545 0.000000 0.818182 0.636364 0.000000 0.818182 0.818182 0.000000 
</DataArray>
</Points>
</Piece>
</StructuredGrid>
</VTKFile>
