<VTKFile type="StructuredGrid" version="1.0" byte_order="LittleEndian" header_type="UInt64">
<StructuredGrid WholeExtent="0 9 0 9 0 0">
<Piece Extent="0 9 0 9 0 0">
<PointData Scalars="data">
<DataArray type="Float64" Name="data" format="ascii">
-2.7715829494981982e-03 -3.8469740382769293e-03 -4.5332441511290004e-03 -4.0865540799213448e-03 -3.6417734799702407e-03 -3.6488561698864493e-03 -4.0851987878427493e-03 -4.5410607548035872e-03 -3.8382837691600846e-03 -2.7804232166796310e-03 -3.8351332226951684e-03 -3.8044874037756640e-03 -3.3659943972030363e-03 -1.7711944588563338e-03 -1.7874635734477755e-04 -1.7960583482582360e-04 -1.7668302312815996e-03 -3.3646236487442976e-03 -3.7988286440945630e-03 -3.8389003717762982e-03 -4.5432785027716650e-03 -3.3647973655092319e-03 -1.7451167346336140e-03 1.2551924328414864e-03 4.2351877037948545e-03 4.2289157707059537e-03 1.2516196413675821e-03 -1.7483532145921078e-03 -3.3646747582513257e-03 -4.5349597845590131e-03 -4.0841745898810488e-03 -1.7815919269230842e-03 1.2375735247706105e-03 6.3716926528661769e-03 1.1510280204202458e-02 1.1495228284395911e-02 6.3675243968179330e-03 1.2473190071847406e-03 -1.7729457725783131e-03 -4.0952831340967640e-03 -3.6484573821880229e-03 -1.9181476327595709e-04 4.2413691990902678e-03 1.1499254692233746e-02 1.8776999710436903e-02 1.8768239471976381e-02 1.1500770324903053e-02 4.2345049569301376e-03 -1.7902202583881739e-04 -3.6532274721543276e-03 -3.6536871473577463e-03 -1.9189129311032374e-04 4.2349055345794603e-03 1.1497522604533159e-02 1.8772725063694852e-02 1.8778992697178462e-02 1.1501493387830826e-02 4.2269825064834236e-03 -1.7834105444702877e-04 -3.6477789015210544e-03 -4.0935155907974256e-03 -1.7814015397651264e-03 1.2490954195677341e-03 6.3793005176328889e-03 1.1497010215760713e-02 1.1497638923873095e-02 6.3778107203458431e-03 1.2405555246209846e-03 -1.7771227885752076e-03 -4.1010741185342750e-03 -4.5336509891687410e-03 -3.3658811533049835e-03 -1.7440342096454074e-03 1.2430271316792238e-03 4.2333820643542137e-03 4.2308960920134954e-03 1.2545741147030648e-03 -1.7488062853271012e-03 -3.3624702402757587e-03 -4.5277884603661641e-03 -3.8503700798124549e-03 -3.7898595598051120e-03 -3.3612373641210285e-03 -1.7840959813277500e-03 -1.9091191112347836e-04 -1.8445121121656125e-04 -1.7703071396991323e-03 -3.3577258483648760e-03 -3.7932727461562591e-03 -3.8397768566254377e-03 -2.7713338507944635e-03 -3.8460645113860344e-03 -4.5360868290426209e-03 -4.0970839635922221e-03 -3.6579576851639814e-03 -3.6438096241162188e-03 -4.0959771093955037e-03 -4.5342456507439857e-03 -3.8341332068302543e-03 -2.7770716247803163e-03 
</DataArray>
</PointData>
<CellData></CellData>
<Points>
<DataArray type="Float64" Name="Points" NumberOfComponents="3" format="ascii">
-0.818182 -0.818182 0.000000 -0.818182 -0.636364 0.000000 -0.818182 -0.454545 0.000000 -0.818182 -0.272727 0.000000 -0.818182 -0.090909 0.000000 -0.818182 0.090909 0.000000 -0.818182 0.272727 0.000000 -0.818182 0.454545 0.000000 -0.818182 0.636364 0.000000 -0.818182 0.818182 0.000000 -0.636364 -0.818182 0.000000 -0.636364 -0.636364 0.000000 -0.636364 -0.454545 0.000000 -0.636364 -0.272727 0.000000 -0.636364 -0.090909 0.000000 -0.636364 0.090909 0.000000 -0.636364 0.272727 0.000000 -0.636364 0.454545 0.000000 -0.636364 0.636364 0.000000 -0.636364 0.818182 0.000000 -0.454545 -0.818182 0.000000 -0.454545 -0.636364 0.000000 -0.454545 -0.454545 0.000000 -0.454545 -0.272727 0.000000 -0.454545 -0.090909 0.000000 -0.454545 0.090909 0.000000 -0.454545 0.272727 0.000000 -0.454545 0.454545 0.000000 -0.454545 0.636364 0.000000 -0.454545 0.818182 0.000000 -0.272727 -0.818182 0.000000 -0.272727 -0.636364 0.000000 -0.272727 -0.454545 0.000000 -0.272727 -0.272727 0.000000 -0.272727 -0.090909 0.000000 -0.272727 0.090909 0.000000 -0.272727 0.272727 0.000000 -0.272727 0.454545 0.000000 -0.272727 0.636364 0.000000 -0.272727 0.818182 0.000000 -0.090909 -0.818182 0.000000 -0.090909 -0.636364 0.000000 -0.090909 -0.454545 0.000000 -0.090909 -0.272727 0.000000 -0.090909 -0.090909 0.000000 -0.090909 0.090909 0.000000 -0.090909 0.272727 0.000000 -0.090909 0.454545 0.000000 -0.090909 0.636364 0.000000 -0.090909 0.818182 0.000000 0.090909 -0.818182 0.000000 0.090909 -0.636364 0.000000 0.090909 -0.454545 0.000000 0.090909 -0.272727 0.000000 0.090909 -0.090909 0.000000 0.090909 0.090909 0.000000 0.090909 0.272727 0.000000 0.090909 0.454545 0.000000 0.090909 0.636364 0.000000 0.090909 0.818182 0.000000 0.272727 -0.818182 0.000000 0.272727 -0.636364 0.000000 0.272727 -0.454545 0.000000 0.272727 -0.272727 0.000000 0.272727 -0.090909 0.000000 0.272727 0.090909 0.000000 0.272727 0.272727 0.000000 0.272727 0.454545 0.000000 0.272727 0.636364 0.000000 0.272727 0.818182 0.000000 0.454545 -0.818182 0.000000 0.454545 -0.636364 0.000000 0.454545 -0.454545 0.000000 0.454545 -0.272727 0.000000 0.454545 -0.090909 0.000000 0.454545 0.090909 0.000000 0.454545 0.272727 0.000000 0.454545 0.454545 0.000000 0.454545 0.636364 0.000000 0.454545 0.818182 0.000000 0.636364 -0.818182 0.000000 0.636364 -0.636364 0.000000 0.636364 -0.454545 0.000000 0.636364 -0.272727 0.000000 0.636364 -0.090909 0.000000 0.636364 0.090909 0.000000 0.636364 0.272727 0.000000 0.636364 0.454545 0.000000 0.636364 0.636364 0.000000 0.636364 0.818182 0.000000 0.818182 -0.818182 0.000000 0.818182 -0.636364 0.000000 0.818182 -0.454545 0.000000 0.818182 -0.272727 0.000000 0.818182 -0.090909 0.000000 0.818182 0.090909 0.000000 0.818182 0.272727 0.000000 0.818182 0.454545 0.000000 0.818182 0.636364 0.000000 0.818182 0.818182 0.000000 
</DataArray>
</Points>
</Piece>
</StructuredGrid>
</VTKFile>
