<VTKFile type="StructuredGrid" version="1.0" byte_order="LittleEndian" header_type="UInt64">
<StructuredGrid WholeExtent="0 9 0 9 0 0">
<Piece Extent="0 9 0 9 0 0">
<PointData Scalars="data">
<DataArray type="Float64" Name="data" format="ascii">
3.1741757880610318e-03 2.4917755465697689e-03 2.1215032877717412e-03 2.6108581251691873e-03 3.1015687916942074e-03 3.1010313304022917e-03 2.6066723676337082e-03 2.1126578096153327e-03 2.4970440777869439e-03 3.1723727399846462e-03 2.4945788117023836e-03 2.0600819582514496e-03 1.8342919092644047e-03 2.2387902051275513e-03 2.6560267738149545e-03 2.6552181411472692e-03 2.2362256179536523e-03 1.8252964098676456e-03 2.0641742279166619e-03 2.5016713121815948e-03 2.1229148034648073e-03 1.8274309019373704e-03 1.7065000084491382e-03 2.0417239479393035e-03 2.3710842034804897e-03 2.3703584680401686e-03 2.0374227853358017e-03 1.6985301115608746e-03 1.8303652423182428e-03 2.1175004075116226e-03 2.6002890088017735e-03 2.2384091887894223e-03 2.0410094748904029e-03 2.3393791689373094e-03 2.6414896002407194e-03 2.6542123430142615e-03 2.3378659793004174e-03 2.0426318460010028e-03 2.2322212712361312e-03 2.6075252124030156e-03 3.1060957395530955e-03 2.6464647095274267e-03 2.3758688187424399e-03 2.6558617644927094e-03 2.9163380294776071e-03 2.9270211698713207e-03 2.6496545066943141e-03 2.3717396735808806e-03 2.6520439526063078e-03 3.0980166141268903e-03 3.0997937252029255e-03 2.6495805439583097e-03 2.3721614858135151e-03 2.6431383835927753e-03 2.9232632689631618e-03 2.9126314220174715e-03 2.6491267783535664e-03 2.3790591789305585e-03 2.6491329138746550e-03 3.1045013015198399e-03 2.6180846957912850e-03 2.2419750179938813e-03 2.0377600317591361e-03 2.3499590557119511e-03 2.6391639158034642e-03 2.6408694599760031e-03 2.3531632056310531e-03 2.0339568455482117e-03 2.2471305216136585e-03 2.6060911315525476e-03 2.1231249545479256e-03 1.8259142717157134e-03 1.6924600403111646e-03 2.0432909490320172e-03 2.3729379714708125e-03 2.3721467651490746e-03 2.0337651415391644e-03 1.7079910450812908e-03 1.8211508286825019e-03 2.1086078434558691e-03 2.4940923516916266e-03 2.0624763904662441e-03 1.8311048496644998e-03 2.2502005114322017e-03 2.6583978226587118e-03 2.6557149688321738e-03 2.2431429709799124e-03 1.8271691895236774e-03 2.0536637724611890e-03 2.4933189596932012e-03 3.1722629103066828e-03 2.4897193577687565e-03 2.1130795537372296e-03 2.6085145264577660e-03 3.1055208378258600e-03 3.1093381503863354e-03 2.6111323953528771e-03 2.1168825325535703e-03 2.4967560727915342e-03 3.1617585516525650e-03 
</DataArray>
</PointData>
<CellData></CellData>
<Points>
<DataArray type="Float64" Name="Points" NumberOfComponents="3" format="ascii">
-0.818182 -0.818182 0.000000 -0.818182 -0.636364 0.000000 -0.818182 -0.454545 0.000000 -0.818182 -0.272727 0.000000 -0.818182 -0.090909 0.000000 -0.818182 0.090909 0.000000 -0.818182 0.272727 0.000000 -0.818182 0.454545 0.000000 -0.818182 0.636364 0.000000 -0.818182 0.818182 0.000000 -0.636364 -0.818182 0.000000 -0.636364 -0.636364 0.000000 -0.636364 -0.454545 0.000000 -0.636364 -0.272727 0.000000 -0.636364 -0.090909 0.000000 -0.636364 0.090909 0.000000 -0.636364 0.272727 0.000000 -0.636364 0.454545 0.000000 -0.636364 0.636364 0.000000 -0.636364 0.818182 0.000000 -0.454545 -0.818182 0.000000 -0.454545 -0.636364 0.000000 -0.454545 -0.454545 0.000000 -0.454545 -0.272727 0.000000 -0.454545 -0.090909 0.000000 -0.454545 0.090909 0.000000 -0.454545 0.272727 0.000000 -0.454545 0.454545 0.000000 -0.454545 0.636364 0.000000 -0.454545 0.818182 0.000000 -0.272727 -0.818182 0.000000 -0.272727 -0.636364 0.000000 -0.272727 -0.454545 0.000000 -0.272727 -0.272727 0.000000 -0.272727 -0.090909 0.000000 -0.272727 0.090909 0.000000 -0.272727 0.272727 0.000000 -0.272727 0.454545 0.000000 -0.272727 0.636364 0.000000 -0.272727 0.818182 0.000000 -0.090909 -0.818182 0.000000 -0.090909 -0.636364 0.000000 -0.090909 -0.454545 0.000000 -0.090909 -0.272727 0.000000 -0.090909 -0.090909 0.000000 -0.090909 0.090909 0.000000 -0.090909 0.272727 0.000000 -0.090909 0.454545 0.000000 -0.090909 0.636364 0.000000 -0.090909 0.818182 0.000000 0.090909 -0.818182 0.000000 0.090909 -0.636364 0.000000 0.090909 -0.454545 0.000000 0.090909 -0.272727 0.000000 0.090909 -0.090909 0.000000 0.090909 0.090909 0.000000 0.090909 0.272727 0.000000 0.090909 0.454545 0.000000 0.090909 0.636364 0.000000 0.090909 0.818182 0.000000 0.272727 -0.818182 0.000000 0.272727 -0.636364 0.000000 0.272727 -0.454545 0.000000 0.272727 -0.272727 0.000000 0.272727 -0.090909 0.000000 0.272727 0.090909 0.000000 0.272727 0.272727 0.000000 0.272727 0.454545 0.000000 0.272727 0.636364 0.000000 0.272727 0.818182 0.000000 0.454545 -0.818182 0.000000 0.454545 -0.636364 0.000000 0.454545 -0.454545 0.000000 0.454545 -0.272727 0.000000 0.454545 -0.090909 0.000000 0.454545 0.090909 0.000000 0.454545 0.272727 0.000000 0.454545 0.454545 0.000000 0.454545 0.636364 0.000000 0.454545 0.818182 0.000000 0.636364 -0.818182 0.000000 0.636364 -0.636364 0.000000 0.636364 -0.454545 0.000000 0.636364 -0.272727 0.000000 0.636364 -0.090909 0.000000 0.636364 0.090909 0.000000 0.636364 0.272727 0.000000 0.636364 0.454545 0.000000 0.636364 0.636364 0.000000 0.636364 0.818182 0.000000 0.818182 -0.818182 0.000000 0.818182 -0.636364 0.000000 0.818182 -0.454545 0.000000 0.818182 -0.272727 0.000000 0.818182 -0.090909 0.000000 0.818182 0.090909 0.000000 0.818182 0.272727 0.000000 0.818182 0.454545 0.000000 0.818182 0.636364 0.000000 0.818182 0.818182 0.000000 
</DataArray>
</Points>
</Piece>
</StructuredGrid>
</VTKFile>
