<VTKFile type="StructuredGrid" version="1.0" byte_order="LittleEndian" header_type="UInt64">
<StructuredGrid WholeExtent="0 9 0 9 0 0">
<Piece Extent="0 9 0 9 0 0">
<PointData Scalars="data">
<DataArray type="Float64" Name="data" format="ascii">
3.6409778764789637e-03 3.9385039111240845e-03 4.0441058087126542e-03 3.5182971320448647e-03 3.0080849289748643e-03 3.0063839928736098e-03 3.5278336238558508e-03 4.0389445891052785e-03 3.9510695574537522e-03 3.6223749534800218e-03 3.9364562899653144e-03 4.3224642853712534e-03 4.4183167282549020e-03 3.6835026193126575e-03 2.9423376833098824e-03 2.9492525220762116e-03 3.6871437965440342e-03 4.4254950140860845e-03 4.3133286236449212e-03 3.9332676388486656e-03 4.0377759848889165e-03 4.4191755004108447e-03 4.4894644078817200e-03 3.6737021944456367e-03 2.8790255205487733e-03 2.8723571281928247e-03 3.6826932028818683e-03 4.5030611487176459e-03 4.4189349590328829e-03 4.0504508044627912e-03 3.5177822344968314e-03 3.6818000443978528e-03 3.6921363553598218e-03 3.1944437580117076e-03 2.7214359165961214e-03 2.7088428742955625e-03 3.2050314610299869e-03 3.6870495591850164e-03 3.6846699100241062e-03 3.5161901412544615e-03 3.0085361230447745e-03 2.9465520773602639e-03 2.8764733513142586e-03 2.7166137643937932e-03 2.5492814809717325e-03 2.5552025956445358e-03 2.7071130071417834e-03 2.8696354043119873e-03 2.9437864825204345e-03 3.0125357901677175e-03 2.9997113024162374e-03 2.9474662609932372e-03 2.8679256199561623e-03 2.7165356585896853e-03 2.5469885250215371e-03 2.5477859228073682e-03 2.7135796195949082e-03 2.8665596431638237e-03 2.9534527093233558e-03 2.9931815096359221e-03 3.5163738197469454e-03 3.6931141432886760e-03 3.6763653409454845e-03 3.1908051659476173e-03 2.7228229652554968e-03 2.7082533409132133e-03 3.1935225051699162e-03 3.6778921025419609e-03 3.6851209942676054e-03 3.5311443925777259e-03 4.0466001511402869e-03 4.4258815250676755e-03 4.4995806570249748e-03 3.6927512010490535e-03 2.8689661564972129e-03 2.8762548905509472e-03 3.6881873727893804e-03 4.4972585295946161e-03 4.4101518874597751e-03 4.0526153751905087e-03 3.9512670691625711e-03 4.3150452056755564e-03 4.4273256373993453e-03 3.6906579579737632e-03 2.9442259237521611e-03 2.9555498243362390e-03 3.6749518898012172e-03 4.4155221809143537e-03 4.3131168199468965e-03 3.9446955281301323e-03 3.6331100772537578e-03 3.9482375041824799e-03 4.0495667013965000e-03 3.5317722837929335e-03 3.0127173791614243e-03 3.0029811268634837e-03 3.5291137871616145e-03 4.0491989806278267e-03 3.9363200566954054e-03 3.6278640798762113e-03 
</DataArray>
</PointData>
<CellData></CellData>
<Points>
<DataArray type="Float64" Name="Points" NumberOfComponents="3" format="ascii">
-0.818182 -0.818182 0.000000 -0.818182 -0.636364 0.000000 -0.818182 -0.454545 0.000000 -0.818182 -0.272727 0.000000 -0.818182 -0.090909 0.000000 -0.818182 0.090909 0.000000 -0.818182 0.272727 0.000000 -0.818182 0.454545 0.000000 -0.818182 0.636364 0.000000 -0.818182 0.818182 0.000000 -0.636364 -0.818182 0.000000 -0.636364 -0.636364 0.000000 -0.636364 -0.454545 0.000000 -0.636364 -0.272727 0.000000 -0.636364 -0.090909 0.000000 -0.636364 0.090909 0.000000 -0.636364 0.272727 0.000000 -0.636364 0.454545 0.000000 -0.636364 0.636364 0.000000 -0.636364 0.818182 0.000000 -0.454545 -0.818182 0.000000 -0.454545 -0.636364 0.000000 -0.454545 -0.454545 0.000000 -0.454545 -0.272727 0.000000 -0.454545 -0.090909 0.000000 -0.454545 0.090909 0.000000 -0.454545 0.272727 0.000000 -0.454545 0.454545 0.000000 -0.454545 0.636364 0.000000 -0.454545 0.818182 0.000000 -0.272727 -0.818182 0.000000 -0.272727 -0.636364 0.000000 -0.272727 -0.454545 0.000000 -0.272727 -0.272727 0.000000 -0.272727 -0.090909 0.000000 -0.272727 0.090909 0.000000 -0.272727 0.272727 0.000000 -0.272727 0.454545 0.000000 -0.272727 0.636364 0.000000 -0.272727 0.818182 0.000000 -0.090909 -0.818182 0.000000 -0.090909 -0.636364 0.000000 -0.090909 -0.454545 0.000000 -0.090909 -0.272727 0.000000 -0.090909 -0.090909 0.000000 -0.090909 0.090909 0.000000 -0.090909 0.272727 0.000000 -0.090909 0.454545 0.000000 -0.090909 0.636364 0.000000 -0.090909 0.818182 0.000000 0.090909 -0.818182 0.000000 0.090909 -0.636364 0.000000 0.090909 -0.454545 0.000000 0.090909 -0.272727 0.000000 0.090909 -0.090909 0.000000 0.090909 0.090909 0.000000 0.090909 0.272727 0.000000 0.090909 0.454545 0.000000 0.090909 0.636364 0.000000 0.090909 0.818182 0.000000 0.272727 -0.818182 0.000000 0.272727 -0.636364 0.000000 0.272727 -0.454545 0.000000 0.272727 -0.272727 0.000000 0.272727 -0.090909 0.000000 0.272727 0.090909 0.000000 0.272727 0.272727 0.000000 0.272727 0.454545 0.000000 0.272727 0.636364 0.000000 0.272727 0.818182 0.000000 0.454545 -0.818182 0.000000 0.454545 -0.636364 0.000000 0.454545 -0.454545 0.000000 0.454545 -0.272727 0.000000 0.454545 -0.090909 0.000000 0.454545 0.090909 0.000000 0.454545 0.272727 0.000000 0.454545 0.454545 0.000000 0.454545 0.636364 0.000000 0.454545 0.818182 0.000000 0.636364 -0.818182 0.000000 0.636364 -0.636364 0.000000 0.636364 -0.454545 0.000000 0.636364 -0.272727 0.000000 0.636364 -0.090909 0.000000 0.636364 0.090909 0.000000 0.636364 0.272727 0.000000 0.636364 0.454545 0.000000 0.636364 0.636364 0.000000 0.636364 0.818182 0.000000 0.818182 -0.818182 0.000000 0.818182 -0.636364 0.000000 0.818182 -0.454545 0.000000 0.818182 -0.272727 0.000000 0.818182 -0.090909 0.000000 0.818182 0.090909 0.000000 0.818182 0.272727 0.000000 0.818182 0.454545 0.000000 0.818182 0.636364 0.000000 0.818182 0.818182 0.000000 
</DataArray>
</Points>
</Piece>
</StructuredGrid>
</VTKFile>
