<VTKFile type="StructuredGrid" version="1.0" byte_order="LittleEndian" header_type="UInt64">
<StructuredGrid WholeExtent="0 9 0 9 0 0">
<Piece Extent="0 9 0 9 0 0">
<PointData Scalars="data">
<DataArray type="Float64" Name="data" format="ascii">
6.0399010170706785e-03 7.9682381729054511e-03 9.3625076853554919e-03 9.1950059729155043e-03 9.0244870800756799e-03 9.0204269967899126e-03 9.2029535491360004e-03 9.3580809152054838e-03 7.9574364365851726e-03 6.0334118755616629e-03 7.9636834178681802e-03 8.8083076195897628e-03 9.1567724110680603e-03 8.0617846909768719e-03 6.9483179709206892e-03 6.9434664288477990e-03 8.0647987106550172e-03 9.1538478422888026e-03 8.7986550785201390e-03 7.9639164991668794e-03 9.3715313936398696e-03 9.1643655585257108e-03 8.3752963581358777e-03 5.8624085701149747e-03 3.3566048853753156e-03 3.3470003539869324e-03 5.8774737191711057e-03 8.3893747172939653e-03 9.1589109889189928e-03 9.3653416143766651e-03 9.2053544013014996e-03 8.0603472390143680e-03 5.8675940604056460e-03 5.5200097569499179e-04 -4.7767654533774177e-03 -4.7701273180122640e-03 5.4237015058028937e-04 5.8672017098810193e-03 8.0589070727903889e-03 9.2041403861551751e-03 9.0375341961478981e-03 6.9385318475848777e-03 3.3596604362287948e-03 -4.7759668416419085e-03 -1.2891168133659653e-02 -1.2891558900338326e-02 -4.7674774557899136e-03 3.3452382797996665e-03 6.9413120141170789e-03 9.0312243794976686e-03 9.0256930119019928e-03 6.9415485736211016e-03 3.3477871960112542e-03 -4.7777452916877754e-03 -1.2893275585572458e-02 -1.2887626029268117e-02 -4.7686700751497484e-03 3.3448758302344682e-03 6.9511528578170131e-03 9.0194412901073162e-03 9.1979032161841178e-03 8.0466689183125040e-03 5.8779291977945130e-03 5.4538182892250469e-04 -4.7662653982727026e-03 -4.7775166516641175e-03 5.5739592177918263e-04 5.8637204420405034e-03 8.0478196792796563e-03 9.1908385724328873e-03 9.3590627492215351e-03 9.1610661966885117e-03 8.3793239604139490e-03 5.8700517836137349e-03 3.3594402563856237e-03 3.3582902399011947e-03 5.8771041124356391e-03 8.3800097064558529e-03 9.1627681689290079e-03 9.3617237210366720e-03 7.9625772538903881e-03 8.8037783125676089e-03 9.1580723398088891e-03 8.0557597731542897e-03 6.9539420128780357e-03 6.9509500778129592e-03 8.0529146176106462e-03 9.1628604457609925e-03 8.8137250364644058e-03 7.9543467858095643e-03 6.0406452212234778e-03 7.9579587881693885e-03 9.3596304186372107e-03 9.2063013006045465e-03 9.0303071817715609e-03 9.0252213543198893e-03 9.1977159892283264e-03 9.3734078608648710e-03 7.9607644381476609e-03 6.0399974553930133e-03 
</DataArray>
</PointData>
<CellData></CellData>
<Points>
<DataArray type="Float64" Name="Points" NumberOfComponents="3" format="ascii">
-0.818182 -0.818182 0.000000 -0.818182 -0.636364 0.000000 -0.818182 -0.454545 0.000000 -0.818182 -0.272727 0.000000 -0.818182 -0.090909 0.000000 -0.818182 0.090909 0.000000 -0.818182 0.272727 0.000000 -0.818182 0.454545 0.000000 -0.818182 0.636364 0.000000 -0.818182 0.818182 0.000000 -0.636364 -0.818182 0.000000 -0.636364 -0.636364 0.000000 -0.636364 -0.454545 0.000000 -0.636364 -0.272727 0.000000 -0.636364 -0.090909 0.000000 -0.636364 0.090909 0.000000 -0.636364 0.272727 0.000000 -0.636364 0.454545 0.000000 -0.636364 0.636364 0.000000 -0.636364 0.818182 0.000000 -0.454545 -0.818182 0.000000 -0.454545 -0.636364 0.000000 -0.454545 -0.454545 0.000000 -0.454545 -0.272727 0.000000 -0.454545 -0.090909 0.000000 -0.454545 0.090909 0.000000 -0.454545 0.272727 0.000000 -0.454545 0.454545 0.000000 -0.454545 0.636364 0.000000 -0.454545 0.818182 0.000000 -0.272727 -0.818182 0.000000 -0.272727 -0.636364 0.000000 -0.272727 -0.454545 0.000000 -0.272727 -0.272727 0.000000 -0.272727 -0.090909 0.000000 -0.272727 0.090909 0.000000 -0.272727 0.272727 0.000000 -0.272727 0.454545 0.000000 -0.272727 0.636364 0.000000 -0.272727 0.818182 0.000000 -0.090909 -0.818182 0.000000 -0.090909 -0.636364 0.000000 -0.090909 -0.454545 0.000000 -0.090909 -0.272727 0.000000 -0.090909 -0.090909 0.000000 -0.090909 0.090909 0.000000 -0.090909 0.272727 0.000000 -0.090909 0.454545 0.000000 -0.090909 0.636364 0.000000 -0.090909 0.818182 0.000000 0.090909 -0.818182 0.000000 0.090909 -0.636364 0.000000 0.090909 -0.454545 0.000000 0.090909 -0.272727 0.000000 0.090909 -0.090909 0.000000 0.090909 0.090909 0.000000 0.090909 0.272727 0.000000 0.090909 0.454545 0.000000 0.090909 0.636364 0.000000 0.090909 0.818182 0.000000 0.272727 -0.818182 0.000000 0.272727 -0.636364 0.000000 0.272727 -0.454545 0.000000 0.272727 -0.272727 0.000000 0.272727 -0.090909 0.000000 0.272727 0.090909 0.000000 0.272727 0.272727 0.000000 0.272727 0.454545 0.000000 0.272727 0.636364 0.000000 0.272727 0.818182 0.000000 0.454545 -0.818182 0.000000 0.454545 -0.636364 0.000000 0.454545 -0.454545 0.000000 0.454545 -0.272727 0.000000 0.454545 -0.090909 0.000000 0.454545 0.090909 0.000000 0.454545 0.272727 0.000000 0.454545 0.454545 0.000000 0.454545 0.636364 0.000000 0.454545 0.818182 0.000000 0.636364 -0.818182 0.000000 0.636364 -0.636364 0.000000 0.636364 -0.454545 0.000000 0.636364 -0.272727 0.000000 0.636364 -0.090909 0.000000 0.636364 0.090909 0.000000 0.636364 0.272727 0.000000 0.636364 0.454545 0.000000 0.636364 0.636364 0.000000 0.636364 0.818182 0.000000 0.818182 -0.818182 0.000000 0.818182 -0.636364 0.000000 0.818182 -0.454545 0.000000 0.818182 -0.272727 0.000000 0.818182 -0.090909 0.000000 0.818182 0.090909 0.000000 0.818182 0.272727 0.000000 0.818182 0.454545 0.000000 0.818182 0.636364 0.000000 0.818182 0.818182 0.000000 
</DataArray>
</Points>
</Piece>
</StructuredGrid>
</VTKFile>
