<VTKFile type="StructuredGrid" version="1.0" byte_order="LittleEndian" header_type="UInt64">
<StructuredGrid WholeExtent="0 9 0 9 0 0">
<Piece Extent="0 9 0 9 0 0">
<PointData Scalars="data">
<DataArray type="Float64" Name="data" format="ascii">
3.6700560848544606e-04 1.1352299437502845e-03 2.0126201669420155e-03 3.2891621954166364e-03 4.5592999665842876e-03 4.5683997613596115e-03 3.2933981878703923e-03 2.0210075571958971e-03 1.1303532511232543e-03 3.5356625927716450e-04 1.1267815383196331e-03 3.0837407318411369e-03 5.1431487542022650e-03 7.4532181361711596e-03 9.7641035577525730e-03 9.7635799393683623e-03 7.4425382152749292e-03 5.1529938281615157e-03 3.0912330384333989e-03 1.1265783499047409e-03 2.0155792677403772e-03 5.1493992051257955e-03 8.1808077327913380e-03 1.0972332452145397e-02 1.3774100460224059e-02 1.3761991893206395e-02 1.0983619824261744e-02 8.1848645326304363e-03 5.1469185955076383e-03 2.0233836921000094e-03 3.2953450974241420e-03 7.4414078188171327e-03 1.0981696466385537e-02 1.2609279676533443e-02 1.4248495943775124e-02 1.4259488040284513e-02 1.2610374868039877e-02 1.0974898497018533e-02 7.4552212299491645e-03 3.2845924244435890e-03 4.5513771474018864e-03 9.7654138601350696e-03 1.3778101602707347e-02 1.4248679311083636e-02 1.4723198026549731e-02 1.4722821292149768e-02 1.4245905817876645e-02 1.3763974178071417e-02 9.7585572326284609e-03 4.5667905374926435e-03 4.5659676006046031e-03 9.7585319021621028e-03 1.3773743703612566e-02 1.4247117896065893e-02 1.4722028557366469e-02 1.4730068908597219e-02 1.4252414259174324e-02 1.3775804966321499e-02 9.7492510122072721e-03 4.5680782934902466e-03 3.2899963800579091e-03 7.4460167590027111e-03 1.0979708964254754e-02 1.2616648880561731e-02 1.4249322720067223e-02 1.4248130073690194e-02 1.2613869915228549e-02 1.0976940546562277e-02 7.4413394646703560e-03 3.2840369664547645e-03 2.0202323089598610e-03 5.1478638430714355e-03 8.1952331177810710e-03 1.0987806929978108e-02 1.3771033019927336e-02 1.3774985875330549e-02 1.0981225634032823e-02 8.1796051797238551e-03 5.1402936042181198e-03 2.0172137967266169e-03 1.1167472531207294e-03 3.0951078708145699e-03 5.1515868715396700e-03 7.4588848856297933e-03 9.7626740994725281e-03 9.7550363216511535e-03 7.4402342088067119e-03 5.1474377430810268e-03 3.0910484017004354e-03 1.1312420006695367e-03 3.6687718881956127e-04 1.1312843512122862e-03 2.0070119519828423e-03 3.2806136455275979e-03 4.5689257454756740e-03 4.5658444186651402e-03 3.2791661530479355e-03 2.0171286237854517e-03 1.1271560322465078e-03 3.5743672467610101e-04 
</DataArray>
</PointData>
<CellData></CellData>
<Points>
<DataArray type="Float64" Name="Points" NumberOfComponents="3" format="ascii">
-0.818182 -0.818182 0.000000 -0.818182 -0.636364 0.000000 -0.818182 -0.454545 0.000000 -0.818182 -0.272727 0.000000 -0.818182 -0.090909 0.000000 -0.818182 0.090909 0.000000 -0.818182 0.272727 0.000000 -0.818182 0.454545 0.000000 -0.818182 0.636364 0.000000 -0.818182 0.818182 0.000000 -0.636364 -0.818182 0.000000 -0.636364 -0.636364 0.000000 -0.636364 -0.454545 0.000000 -0.636364 -0.272727 0.000000 -0.636364 -0.090909 0.000000 -0.636364 0.090909 0.000000 -0.636364 0.272727 0.000000 -0.636364 0.454545 0.000000 -0.636364 0.636364 0.000000 -0.636364 0.818182 0.000000 -0.454545 -0.818182 0.000000 -0.454545 -0.636364 0.000000 -0.454545 -0.454545 0.000000 -0.454545 -0.272727 0.000000 -0.454545 -0.090909 0.000000 -0.454545 0.090909 0.000000 -0.454545 0.272727 0.000000 -0.454545 0.454545 0.000000 -0.454545 0.636364 0.000000 -0.454545 0.818182 0.000000 -0.272727 -0.818182 0.000000 -0.272727 -0.636364 0.000000 -0.272727 -0.454545 0.000000 -0.272727 -0.272727 0.000000 -0.272727 -0.090909 0.000000 -0.272727 0.090909 0.000000 -0.272727 0.272727 0.000000 -0.272727 0.454545 0.000000 -0.272727 0.636364 0.000000 -0.272727 0.818182 0.000000 -0.090909 -0.818182 0.000000 -0.090909 -0.636364 0.000000 -0.090909 -0.454545 0.000000 -0.090909 -0.272727 0.000000 -0.090909 -0.090909 0.000000 -0.090909 0.090909 0.000000 -0.090909 0.272727 0.000000 -0.090909 0.454545 0.000000 -0.090909 0.636364 0.000000 -0.090909 0.818182 0.000000 0.090909 -0.818182 0.000000 0.090909 -0.636364 0.000000 0.090909 -0.454545 0.000000 0.090909 -0.272727 0.000000 0.090909 -0.090909 0.000000 0.090909 0.090909 0.000000 0.090909 0.272727 0.000000 0.090909 0.454545 0.000000 0.090909 0.636364 0.000000 0.090909 0.818182 0.000000 0.272727 -0.818182 0.000000 0.272727 -0.636364 0.000000 0.272727 -0.454545 0.000000 0.272727 -0.272727 0.000000 0.272727 -0.090909 0.000000 0.272727 0.090909 0.000000 0.272727 0.272727 0.000000 0.272727 0.454545 0.000000 0.272727 0.636364 0.000000 0.272727 0.818182 0.000000 0.454545 -0.818182 0.000000 0.454545 -0.636364 0.000000 0.454545 -0.454545 0.000000 0.454545 -0.272727 0.000000 0.454545 -0.090909 0.000000 0.454545 0.090909 0.000000 0.454545 0.272727 0.000000 0.454545 0.454545 0.000000 0.454545 0.636364 0.000000 0.454545 0.818182 0.000000 0.636364 -0.818182 0.000000 0.636364 -0.636364 0.000000 0.636364 -0.454545 0.000000 0.636364 -0.272727 0.000000 0.636364 -0.090909 0.000000 0.636364 0.090909 0.000000 0.636364 0.272727 0.000000 0.636364 0.454545 0.000000 0.636364 0.636364 0.000000 0.636364 0.818182 0.000000 0.818182 -0.818182 0.000000 0.818182 -0.636364 0.000000 0.818182 -0.454545 0.000000 0.818182 -0.272727 0.000000 0.818182 -0.090909 0.000000 0.818182 0.090909 0.000000 0.818182 0.272727 0.000000 0.818182 0.454545 0.000000 0.818182 0.636364 0.000000 0.818182 0.818182 0.000000 
</DataArray>
</Points>
</Piece>
</StructuredGrid>
</VTKFile>
