<VTKFile type="StructuredGrid" version="1.0" byte_order="LittleEndian" header_type="UInt64">
<StructuredGrid WholeExtent="0 9 0 9 0 0">
<Piece Extent="0 9 0 9 0 0">
<PointData Scalars="residual">
<DataArray type="Float64" Name="residual" format="ascii">
1.7177724887739027e-03 6.0378901177594565e-04 -6.2210577439853355e-05 5.3898464480659283e-04 1.1415356961806118e-03 1.1409982348886982e-03 5.3479888727111895e-04 -7.1056055596251892e-05 6.0905754299312971e-04 1.7159694406975235e-03 6.0659227690856030e-04 -1.0037888393395027e-04 -5.3767251290253891e-04 -1.6176561479083794e-04 2.2687955614511968e-04 2.2607092347743437e-04 -1.6433020196473733e-04 -5.4666801229929889e-04 -9.6286614268731915e-05 6.1368477738778585e-04 -6.0799061746785905e-05 -5.4453352022957322e-04 -8.3979146229414253e-04 -6.3712404624327807e-04 -4.4032031414139271e-04 -4.4104604958171466e-04 -6.4142520884678377e-04 -8.4776135918241216e-04 -5.4159917984869738e-04 -6.6213457699954622e-05 5.2841552843918343e-04 -1.6214663112896566e-04 -6.3783851929217952e-04 -4.6659050363465938e-04 -2.9160175072063567e-04 -2.7887900794709318e-04 -4.6810369327154964e-04 -6.3621614818157703e-04 -1.6833454868225416e-04 5.3565173204042594e-04 1.1460626440395086e-03 2.1731749185759401e-04 -4.3553569887944512e-04 -2.7722958646864701e-04 -1.3844015482322074e-04 -1.2775701442950494e-04 -2.8343684426703451e-04 -4.3966484404099138e-04 2.2289673493647690e-04 1.1379835186132881e-03 1.1397606296893394e-03 2.2043332628847272e-04 -4.3924303180837600e-04 -2.8995296736858325e-04 -1.3151491533766472e-04 -1.4214676228335157e-04 -2.8396457260778350e-04 -4.3234533869131783e-04 2.1998569620482059e-04 1.1444682060062356e-03 5.4621121542869702e-04 -1.5858080192451872e-04 -6.4108796242346626e-04 -4.5601061686002505e-04 -2.9392743515788524e-04 -2.9222189098534459e-04 -4.5280646694091740e-04 -6.4489114863438158e-04 -1.5342529830473855e-04 5.3421765118995225e-04 -6.0588910663663710e-05 -5.4605015045125016e-04 -8.5383143043214912e-04 -6.3555704515057612e-04 -4.3846654615105991e-04 -4.3925775247279737e-04 -6.4508285264342673e-04 -8.3830042566201903e-04 -5.5081359348445737e-04 -7.5106021755716717e-05 6.0610581689780310e-04 -9.7984451719168759e-05 -5.4085957250246241e-04 -1.5035530848619147e-04 2.2925060498888783e-04 2.2656775116235107e-04 -1.5741284893847681e-04 -5.4479523264327925e-04 -1.0679706972421734e-04 6.0533242489938357e-04 1.7158596110195467e-03 6.0173282297493235e-04 -7.0634311474360601e-05 5.3664104609517848e-04 1.1454877423122752e-03 1.1493050548727524e-03 5.3925891499029570e-04 -6.6831332658009914e-05 6.0876953799771896e-04 1.7053552523654347e-03 
</DataArray>
</PointData>
<CellData></CellData>
<Points>
<DataArray type="Float64" Name="Points" NumberOfComponents="3" format="ascii">
-0.818182 -0.818182 0.000000 -0.818182 -0.636364 0.000000 -0.818182 -0.454545 0.000000 -0.818182 -0.272727 0.000000 -0.818182 -0.090909 0.000000 -0.818182 0.090909 0.000000 -0.818182 0.272727 0.000000 -0.818182 0.454545 0.000000 -0.818182 0.636364 0.000000 -0.818182 0.818182 0.000000 -0.636364 -0.818182 0.000000 -0.636364 -0.636364 0.000000 -0.636364 -0.454545 0.000000 -0.636364 -0.272727 0.000000 -0.636364 -0.090909 0.000000 -0.636364 0.090909 0.000000 -0.636364 0.272727 0.000000 -0.636364 0.454545 0.000000 -0.636364 0.636364 0.000000 -0.636364 0.818182 0.000000 -0.454545 -0.818182 0.000000 -0.454545 -0.636364 0.000000 -0.454545 -0.454545 0.000000 -0.454545 -0.272727 0.000000 -0.454545 -0.090909 0.000000 -0.454545 0.090909 0.000000 -0.454545 0.272727 0.000000 -0.454545 0.454545 0.000000 -0.454545 0.636364 0.000000 -0.454545 0.818182 0.000000 -0.272727 -0.818182 0.000000 -0.272727 -0.636364 0.000000 -0.272727 -0.454545 0.000000 -0.272727 -0.272727 0.000000 -0.272727 -0.090909 0.000000 -0.272727 0.090909 0.000000 -0.272727 0.272727 0.000000 -0.272727 0.454545 0.000000 -0.272727 0.636364 0.000000 -0.272727 0.818182 0.000000 -0.090909 -0.818182 0.000000 -0.090909 -0.636364 0.000000 -0.090909 -0.454545 0.000000 -0.090909 -0.272727 0.000000 -0.090909 -0.090909 0.000000 -0.090909 0.090909 0.000000 -0.090909 0.272727 0.000000 -0.090909 0.454545 0.000000 -0.090909 0.636364 0.000000 -0.090909 0.818182 0.000000 0.090909 -0.818182 0.000000 0.090909 -0.636364 0.000000 0.090909 -0.454545 0.000000 0.090909 -0.272727 0.000000 0.090909 -0.090909 0.000000 0.090909 0.090909 0.000000 0.090909 0.272727 0.000000 0.090909 0.454545 0.000000 0.090909 0.636364 0.000000 0.090909 0.818182 0.000000 0.272727 -0.818182 0.000000 0.272727 -0.636364 0.000000 0.272727 -0.454545 0.000000 0.272727 -0.272727 0.000000 0.272727 -0.090909 0.000000 0.272727 0.090909 0.000000 0.272727 0.272727 0.000000 0.272727 0.454545 0.000000 0.272727 0.636364 0.000000 0.272727 0.818182 0.000000 0.454545 -0.818182 0.000000 0.454545 -0.636364 0.000000 0.454545 -0.454545 0.000000 0.454545 -0.272727 0.000000 0.454545 -0.090909 0.000000 0.454545 0.090909 0.000000 0.454545 0.272727 0.000000 0.454545 0.454545 0.000000 0.454545 0.636364 0.000000 0.454545 0.818182 0.000000 0.636364 -0.818182 0.000000 0.636364 -0.636364 0.000000 0.636364 -0.454545 0.000000 0.636364 -0.272727 0.000000 0.636364 -0.090909 0.000000 0.636364 0.090909 0.000000 0.636364 0.272727 0.000000 0.636364 0.454545 0.000000 0.636364 0.636364 0.000000 0.636364 0.818182 0.000000 0.818182 -0.818182 0.000000 0.818182 -0.636364 0.000000 0.818182 -0.454545 0.000000 0.818182 -0.272727 0.000000 0.818182 -0.090909 0.000000 0.818182 0.090909 0.000000 0.818182 0.272727 0.000000 0.818182 0.454545 0.000000 0.818182 0.636364 0.000000 0.818182 0.818182 0.000000 
</DataArray>
</Points>
</Piece>
</StructuredGrid>
</VTKFile>
