<VTKFile type="StructuredGrid" version="1.0" byte_order="LittleEndian" header_type="UInt64">
<StructuredGrid WholeExtent="0 9 0 9 0 0">
<Piece Extent="0 9 0 9 0 0">
<PointData Scalars="residual">
<DataArray type="Float64" Name="residual" format="ascii">
-1.1133184602092365e-03 -2.7095849952340004e-04 2.4675352495940120e-04 -2.1775693924748181e-04 -6.7350281020354388e-04 -6.7871577779763021e-04 -2.0458739997308937e-04 2.4746168153007416e-04 -2.5866812761303048e-04 -1.1040966241872324e-03 -2.6216058389341452e-04 4.0474971008984005e-04 8.3984306681949682e-04 5.7180284370930918e-04 3.2485635331166909e-04 3.3221685683451348e-04 5.7781854799573594e-04 8.3321736407110814e-04 4.0291879870487041e-04 -2.6676922700452762e-04 2.4607967721850541e-04 8.3619567924564896e-04 1.2398275109284946e-03 1.1907868429975146e-03 1.1287582994079152e-03 1.1287809711058902e-03 1.1816595125809326e-03 1.2546112696501428e-03 8.2519602072191880e-04 2.5947784880939661e-04 -2.0396591024098238e-04 5.8597396783899628e-04 1.1889963089731794e-03 1.2290247993791445e-03 1.2753271361749627e-03 1.2745077281744097e-03 1.2248238551068422e-03 1.1904418379648967e-03 5.8787883055022843e-04 -2.1454663481430217e-04 -6.7376248471577430e-04 3.2522253021966506e-04 1.1220407174448027e-03 1.2868110943638953e-03 1.4246817226529743e-03 1.4271601207722854e-03 1.2807201755871541e-03 1.1148297980370296e-03 3.3044870204236446e-04 -6.8515294360061416e-04 -6.7624497620555812e-04 3.1850617708583653e-04 1.1141634730863791e-03 1.2817976285941319e-03 1.4434506310178708e-03 1.4391669329787743e-03 1.2716233721248231e-03 1.1266797668117176e-03 3.2135713011551470e-04 -6.8269947569397850e-04 -2.0630325918052916e-04 5.8113032168101821e-04 1.1832442938493498e-03 1.2350798932496180e-03 1.2755067347602405e-03 1.2693965168562274e-03 1.2293851175487519e-03 1.1790094558082154e-03 5.8130794530530765e-04 -2.1203232292440729e-04 2.4408344952814125e-04 8.2164815110132320e-04 1.2475607324824538e-03 1.1808976185271377e-03 1.1269677555503469e-03 1.1156507884188143e-03 1.1880761291270894e-03 1.2554310981024203e-03 8.2427883851281074e-04 2.5297573269980958e-04 -2.5785399668390224e-04 3.9295065085382134e-04 8.2537594506585407e-04 5.8505494620175302e-04 3.3413052400367267e-04 3.1781656987757900e-04 5.7847237743742204e-04 8.2768772258900959e-04 3.9156790960038308e-04 -2.6601784586705339e-04 -1.1104620517904816e-03 -2.5428489214470232e-04 2.5417157213386381e-04 -2.0643141517662960e-04 -6.8386728348297462e-04 -6.7657279151166531e-04 -2.1969681727935673e-04 2.4858053102805788e-04 -2.6487124167886514e-04 -1.1127323944048542e-03 
</DataArray>
</PointData>
<CellData></CellData>
<Points>
<DataArray type="Float64" Name="Points" NumberOfComponents="3" format="ascii">
-0.818182 -0.818182 0.000000 -0.818182 -0.636364 0.000000 -0.818182 -0.454545 0.000000 -0.818182 -0.272727 0.000000 -0.818182 -0.090909 0.000000 -0.818182 0.090909 0.000000 -0.818182 0.272727 0.000000 -0.818182 0.454545 0.000000 -0.818182 0.636364 0.000000 -0.818182 0.818182 0.000000 -0.636364 -0.818182 0.000000 -0.636364 -0.636364 0.000000 -0.636364 -0.454545 0.000000 -0.636364 -0.272727 0.000000 -0.636364 -0.090909 0.000000 -0.636364 0.090909 0.000000 -0.636364 0.272727 0.000000 -0.636364 0.454545 0.000000 -0.636364 0.636364 0.000000 -0.636364 0.818182 0.000000 -0.454545 -0.818182 0.000000 -0.454545 -0.636364 0.000000 -0.454545 -0.454545 0.000000 -0.454545 -0.272727 0.000000 -0.454545 -0.090909 0.000000 -0.454545 0.090909 0.000000 -0.454545 0.272727 0.000000 -0.454545 0.454545 0.000000 -0.454545 0.636364 0.000000 -0.454545 0.818182 0.000000 -0.272727 -0.818182 0.000000 -0.272727 -0.636364 0.000000 -0.272727 -0.454545 0.000000 -0.272727 -0.272727 0.000000 -0.272727 -0.090909 0.000000 -0.272727 0.090909 0.000000 -0.272727 0.272727 0.000000 -0.272727 0.454545 0.000000 -0.272727 0.636364 0.000000 -0.272727 0.818182 0.000000 -0.090909 -0.818182 0.000000 -0.090909 -0.636364 0.000000 -0.090909 -0.454545 0.000000 -0.090909 -0.272727 0.000000 -0.090909 -0.090909 0.000000 -0.090909 0.090909 0.000000 -0.090909 0.272727 0.000000 -0.090909 0.454545 0.000000 -0.090909 0.636364 0.000000 -0.090909 0.818182 0.000000 0.090909 -0.818182 0.000000 0.090909 -0.636364 0.000000 0.090909 -0.454545 0.000000 0.090909 -0.272727 0.000000 0.090909 -0.090909 0.000000 0.090909 0.090909 0.000000 0.090909 0.272727 0.000000 0.090909 0.454545 0.000000 0.090909 0.636364 0.000000 0.090909 0.818182 0.000000 0.272727 -0.818182 0.000000 0.272727 -0.636364 0.000000 0.272727 -0.454545 0.000000 0.272727 -0.272727 0.000000 0.272727 -0.090909 0.000000 0.272727 0.090909 0.000000 0.272727 0.272727 0.000000 0.272727 0.454545 0.000000 0.272727 0.636364 0.000000 0.272727 0.818182 0.000000 0.454545 -0.818182 0.000000 0.454545 -0.636364 0.000000 0.454545 -0.454545 0.000000 0.454545 -0.272727 0.000000 0.454545 -0.090909 0.000000 0.454545 0.090909 0.000000 0.454545 0.272727 0.000000 0.454545 0.454545 0.000000 0.454545 0.636364 0.000000 0.454545 0.818182 0.000000 0.636364 -0.818182 0.000000 0.636364 -0.636364 0.000000 0.636364 -0.454545 0.000000 0.636364 -0.272727 0.000000 0.636364 -0.090909 0.000000 0.636364 0.090909 0.000000 0.636364 0.272727 0.000000 0.636364 0.454545 0.000000 0.636364 0.636364 0.000000 0.636364 0.818182 0.000000 0.818182 -0.818182 0.000000 0.818182 -0.636364 0.000000 0.818182 -0.454545 0.000000 0.818182 -0.272727 0.000000 0.818182 -0.090909 0.000000 0.818182 0.090909 0.000000 0.818182 0.272727 0.000000 0.818182 0.454545 0.000000 0.818182 0.636364 0.000000 0.818182 0.818182 0.000000 
</DataArray>
</Points>
</Piece>
</StructuredGrid>
</VTKFile>
