<VTKFile type="StructuredGrid" version="1.0" byte_order="LittleEndian" header_type="UInt64">
<StructuredGrid WholeExtent="0 9 0 9 0 0">
<Piece Extent="0 9 0 9 0 0">
<PointData Scalars="residual">
<DataArray type="Float64" Name="residual" format="ascii">
6.1131079771499803e-06 2.6220144224059097e-05 -3.7634896439642609e-06 -1.3680225378094501e-04 -2.7385596388834152e-04 -2.8202596805071791e-04 -1.4947783972973374e-04 2.3499195474014674e-06 1.7348274371554489e-05 4.8403104895217946e-06 3.0708147572807684e-05 2.8410889234446928e-05 -1.0862566592330169e-04 -6.0124660969643196e-04 -1.0954359082031699e-03 -1.0942356691946648e-03 -6.1317778105373017e-04 -1.1253471259220615e-04 2.4987162792681279e-05 2.4384367382821859e-05 1.1259132880143810e-05 -1.0417101969606396e-04 -3.8932845733241200e-04 -1.1276545586444142e-03 -1.8907756923864265e-03 -1.8899627701761191e-03 -1.1396515548790784e-03 -3.8748264975892557e-04 -1.0133210340561419e-04 -6.8796943395875277e-06 -1.4023219341589662e-04 -6.0783503939761249e-04 -1.1353416518572390e-03 -1.8752077589009120e-03 -2.6074747232310222e-03 -2.6013681591743019e-03 -1.8590146832343467e-03 -1.1359226316072801e-03 -6.1312624651664615e-04 -1.3500526611145213e-04 -2.8977838865122218e-04 -1.0956864578836622e-03 -1.8869760811516649e-03 -2.5946541362566865e-03 -3.3010083194235269e-03 -3.3124633085137092e-03 -2.5988276704302822e-03 -1.8827179533271393e-03 -1.0926753010282483e-03 -2.8407245547492775e-04 -2.8303914131865113e-04 -1.1057225286725358e-03 -1.8881149612375210e-03 -2.6082753486503067e-03 -3.3086828539906840e-03 -3.3037681301650822e-03 -2.5914015808994641e-03 -1.8827955058163314e-03 -1.1050452867344867e-03 -2.8967880288337819e-04 -1.4475584870175600e-04 -6.0596092135474869e-04 -1.1310952344697556e-03 -1.8722728852037743e-03 -2.6026784755123801e-03 -2.5960972635057557e-03 -1.8635882403531742e-03 -1.1374320034816775e-03 -6.1120906880971187e-04 -1.3352244137108339e-04 1.0725161357259443e-05 -1.1607759553859461e-04 -3.8271652175543531e-04 -1.1339463574848456e-03 -1.8897506334774670e-03 -1.8804532492607668e-03 -1.1411300224644597e-03 -3.7837843392176935e-04 -1.0617974034960093e-04 7.7281598468176106e-06 2.6569974558634377e-05 1.4104484678534584e-05 -1.0125307018646002e-04 -6.1131750939150977e-04 -1.1011585309074804e-03 -1.0918069508335463e-03 -6.1092054397044197e-04 -1.1180472577051544e-04 1.2763903289235175e-05 2.6154378213188003e-05 1.2423674162779793e-05 3.5526257183502283e-05 -3.8364946588302697e-06 -1.3227619002079737e-04 -2.7530852952698898e-04 -2.8229078512828209e-04 -1.3407358241961217e-04 1.0228294165329571e-06 2.9645101436989506e-05 1.9750085944662939e-05 
</DataArray>
</PointData>
<CellData></CellData>
<Points>
<DataArray type="Float64" Name="Points" NumberOfComponents="3" format="ascii">
-0.818182 -0.818182 0.000000 -0.818182 -0.636364 0.000000 -0.818182 -0.454545 0.000000 -0.818182 -0.272727 0.000000 -0.818182 -0.090909 0.000000 -0.818182 0.090909 0.000000 -0.818182 0.272727 0.000000 -0.818182 0.454545 0.000000 -0.818182 0.636364 0.000000 -0.818182 0.818182 0.000000 -0.636364 -0.818182 0.000000 -0.636364 -0.636364 0.000000 -0.636364 -0.454545 0.000000 -0.636364 -0.272727 0.000000 -0.636364 -0.090909 0.000000 -0.636364 0.090909 0.000000 -0.636364 0.272727 0.000000 -0.636364 0.454545 0.000000 -0.636364 0.636364 0.000000 -0.636364 0.818182 0.000000 -0.454545 -0.818182 0.000000 -0.454545 -0.636364 0.000000 -0.454545 -0.454545 0.000000 -0.454545 -0.272727 0.000000 -0.454545 -0.090909 0.000000 -0.454545 0.090909 0.000000 -0.454545 0.272727 0.000000 -0.454545 0.454545 0.000000 -0.454545 0.636364 0.000000 -0.454545 0.818182 0.000000 -0.272727 -0.818182 0.000000 -0.272727 -0.636364 0.000000 -0.272727 -0.454545 0.000000 -0.272727 -0.272727 0.000000 -0.272727 -0.090909 0.000000 -0.272727 0.090909 0.000000 -0.272727 0.272727 0.000000 -0.272727 0.454545 0.000000 -0.272727 0.636364 0.000000 -0.272727 0.818182 0.000000 -0.090909 -0.818182 0.000000 -0.090909 -0.636364 0.000000 -0.090909 -0.454545 0.000000 -0.090909 -0.272727 0.000000 -0.090909 -0.090909 0.000000 -0.090909 0.090909 0.000000 -0.090909 0.272727 0.000000 -0.090909 0.454545 0.000000 -0.090909 0.636364 0.000000 -0.090909 0.818182 0.000000 0.090909 -0.818182 0.000000 0.090909 -0.636364 0.000000 0.090909 -0.454545 0.000000 0.090909 -0.272727 0.000000 0.090909 -0.090909 0.000000 0.090909 0.090909 0.000000 0.090909 0.272727 0.000000 0.090909 0.454545 0.000000 0.090909 0.636364 0.000000 0.090909 0.818182 0.000000 0.272727 -0.818182 0.000000 0.272727 -0.636364 0.000000 0.272727 -0.454545 0.000000 0.272727 -0.272727 0.000000 0.272727 -0.090909 0.000000 0.272727 0.090909 0.000000 0.272727 0.272727 0.000000 0.272727 0.454545 0.000000 0.272727 0.636364 0.000000 0.272727 0.818182 0.000000 0.454545 -0.818182 0.000000 0.454545 -0.636364 0.000000 0.454545 -0.454545 0.000000 0.454545 -0.272727 0.000000 0.454545 -0.090909 0.000000 0.454545 0.090909 0.000000 0.454545 0.272727 0.000000 0.454545 0.454545 0.000000 0.454545 0.636364 0.000000 0.454545 0.818182 0.000000 0.636364 -0.818182 0.000000 0.636364 -0.636364 0.000000 0.636364 -0.454545 0.000000 0.636364 -0.272727 0.000000 0.636364 -0.090909 0.000000 0.636364 0.090909 0.000000 0.636364 0.272727 0.000000 0.636364 0.454545 0.000000 0.636364 0.636364 0.000000 0.636364 0.818182 0.000000 0.818182 -0.818182 0.000000 0.818182 -0.636364 0.000000 0.818182 -0.454545 0.000000 0.818182 -0.272727 0.000000 0.818182 -0.090909 0.000000 0.818182 0.090909 0.000000 0.818182 0.272727 0.000000 0.818182 0.454545 0.000000 0.818182 0.636364 0.000000 0.818182 0.818182 0.000000 
</DataArray>
</Points>
</Piece>
</StructuredGrid>
</VTKFile>
