<VTKFile type="StructuredGrid" version="1.0" byte_order="LittleEndian" header_type="UInt64">
<StructuredGrid WholeExtent="0 9 0 9 0 0">
<Piece Extent="0 9 0 9 0 0">
<PointData Scalars="residual">
<DataArray type="Float64" Name="residual" format="ascii">
6.2276250144027885e-06 8.2499741192515116e-07 -1.8985512688358790e-06 -4.8635432650240285e-06 9.3605798960876702e-07 -5.4003507180271255e-06 4.9356726687173509e-06 -6.8076002659143986e-06 6.4677839077460254e-06 8.1769965684947571e-06 5.1112066571509449e-06 -3.5381614523336859e-06 -8.0652407347093190e-06 -7.9082216147999089e-06 1.3342530217655760e-05 2.0295551019091935e-05 -3.1149654926001732e-06 -1.6728357090142320e-05 -7.9577902706126809e-06 -2.5495705080176914e-06 -1.0035760300078789e-05 -1.4840392379833825e-05 -3.4968466296647800e-05 5.7131456944301169e-06 3.3406882026888740e-05 3.3543672305080992e-05 -3.0718289815000882e-06 -1.9614114673913424e-05 -2.5044456137903598e-05 4.3819294890928145e-06 3.1926239830557153e-06 4.1592013127803550e-06 4.4183470421974534e-06 3.1395807986158916e-07 2.4834155073788933e-06 1.7166561171234364e-06 -3.7290403615479299e-06 6.1271190854028657e-06 8.2203036418293171e-06 -2.7429646242082238e-06 -3.3299787491150069e-06 1.2629068792715560e-05 2.7680770807981658e-05 1.4463109068414172e-05 -2.5654301301166697e-05 -2.3184724541477908e-05 8.3457262128067838e-06 2.0425744602098426e-05 2.1372125085388199e-05 -6.4496839001233330e-06 -4.5963322366539272e-06 7.3990161482263665e-06 2.1304675703518079e-05 1.0199700149811190e-05 -6.8864284879098688e-06 -1.1342253689717793e-05 -4.9093780763180724e-07 3.2960333615300163e-05 1.2979415086140141e-05 -3.4198587459761867e-06 4.5036890502403622e-06 3.7744566228192084e-06 3.1697796802486640e-06 8.6192225038166613e-06 2.6599074377385741e-06 -3.8875792652448733e-06 1.6126404060391904e-06 -3.2514023557378251e-06 3.7460041797127835e-06 1.5004190082211141e-06 -5.9512979792238942e-06 -2.1956418077465067e-05 -1.9729498472886679e-05 -4.2579452014419872e-07 3.1611160411123586e-05 1.9591782844361610e-05 4.6454847741185870e-06 -1.5371185029068157e-05 -2.2467328709004867e-05 7.6159961706319737e-07 1.0102084158713966e-05 -1.4803312140448336e-05 -2.2097709573753923e-05 5.8326564914526653e-06 2.3159599222679315e-05 7.2490349274007861e-06 4.6025721956626311e-07 -1.7768982896523323e-05 -1.4644025701002379e-05 2.5781074996485479e-06 1.7623654314869244e-06 7.8448544805803828e-06 -4.4747418226887513e-06 2.1020403295373725e-06 -8.1540585140892075e-06 1.1066041881811067e-06 -5.2648495803076303e-06 -2.3492927369098138e-07 6.0238742790605718e-06 5.5259658995696764e-06 
</DataArray>
</PointData>
<CellData></CellData>
<Points>
<DataArray type="Float64" Name="Points" NumberOfComponents="3" format="ascii">
-0.818182 -0.818182 0.000000 -0.818182 -0.636364 0.000000 -0.818182 -0.454545 0.000000 -0.818182 -0.272727 0.000000 -0.818182 -0.090909 0.000000 -0.818182 0.090909 0.000000 -0.818182 0.272727 0.000000 -0.818182 0.454545 0.000000 -0.818182 0.636364 0.000000 -0.818182 0.818182 0.000000 -0.636364 -0.818182 0.000000 -0.636364 -0.636364 0.000000 -0.636364 -0.454545 0.000000 -0.636364 -0.272727 0.000000 -0.636364 -0.090909 0.000000 -0.636364 0.090909 0.000000 -0.636364 0.272727 0.000000 -0.636364 0.454545 0.000000 -0.636364 0.636364 0.000000 -0.636364 0.818182 0.000000 -0.454545 -0.818182 0.000000 -0.454545 -0.636364 0.000000 -0.454545 -0.454545 0.000000 -0.454545 -0.272727 0.000000 -0.454545 -0.090909 0.000000 -0.454545 0.090909 0.000000 -0.454545 0.272727 0.000000 -0.454545 0.454545 0.000000 -0.454545 0.636364 0.000000 -0.454545 0.818182 0.000000 -0.272727 -0.818182 0.000000 -0.272727 -0.636364 0.000000 -0.272727 -0.454545 0.000000 -0.272727 -0.272727 0.000000 -0.272727 -0.090909 0.000000 -0.272727 0.090909 0.000000 -0.272727 0.272727 0.000000 -0.272727 0.454545 0.000000 -0.272727 0.636364 0.000000 -0.272727 0.818182 0.000000 -0.090909 -0.818182 0.000000 -0.090909 -0.636364 0.000000 -0.090909 -0.454545 0.000000 -0.090909 -0.272727 0.000000 -0.090909 -0.090909 0.000000 -0.090909 0.090909 0.000000 -0.090909 0.272727 0.000000 -0.090909 0.454545 0.000000 -0.090909 0.636364 0.000000 -0.090909 0.818182 0.000000 0.090909 -0.818182 0.000000 0.090909 -0.636364 0.000000 0.090909 -0.454545 0.000000 0.090909 -0.272727 0.000000 0.090909 -0.090909 0.000000 0.090909 0.090909 0.000000 0.090909 0.272727 0.000000 0.090909 0.454545 0.000000 0.090909 0.636364 0.000000 0.090909 0.818182 0.000000 0.272727 -0.818182 0.000000 0.272727 -0.636364 0.000000 0.272727 -0.454545 0.000000 0.272727 -0.272727 0.000000 0.272727 -0.090909 0.000000 0.272727 0.090909 0.000000 0.272727 0.272727 0.000000 0.272727 0.454545 0.000000 0.272727 0.636364 0.000000 0.272727 0.818182 0.000000 0.454545 -0.818182 0.000000 0.454545 -0.636364 0.000000 0.454545 -0.454545 0.000000 0.454545 -0.272727 0.000000 0.454545 -0.090909 0.000000 0.454545 0.090909 0.000000 0.454545 0.272727 0.000000 0.454545 0.454545 0.000000 0.454545 0.636364 0.000000 0.454545 0.818182 0.000000 0.636364 -0.818182 0.000000 0.636364 -0.636364 0.000000 0.636364 -0.454545 0.000000 0.636364 -0.272727 0.000000 0.636364 -0.090909 0.000000 0.636364 0.090909 0.000000 0.636364 0.272727 0.000000 0.636364 0.454545 0.000000 0.636364 0.636364 0.000000 0.636364 0.818182 0.000000 0.818182 -0.818182 0.000000 0.818182 -0.636364 0.000000 0.818182 -0.454545 0.000000 0.818182 -0.272727 0.000000 0.818182 -0.090909 0.000000 0.818182 0.090909 0.000000 0.818182 0.272727 0.000000 0.818182 0.454545 0.000000 0.818182 0.636364 0.000000 0.818182 0.818182 0.000000 
</DataArray>
</Points>
</Piece>
</StructuredGrid>
</VTKFile>
