<VTKFile type="StructuredGrid" version="1.0" byte_order="LittleEndian" header_type="UInt64">
<StructuredGrid WholeExtent="0 9 0 9 0 0">
<Piece Extent="0 9 0 9 0 0">
<PointData Scalars="residual">
<DataArray type="Float64" Name="residual" format="ascii">
1.9118607430716229e-05 -3.0518355615447024e-05 -3.8328145645795571e-05 2.5867314870668331e-06 4.4857437747504187e-05 4.5450788977012459e-05 1.7934115158638533e-06 -4.1519561195077666e-05 -2.4695004127234937e-05 1.0317514829632189e-05 -2.5826737014690224e-05 -2.3574165598231039e-05 -1.9776942062790619e-05 -7.1778307118861365e-06 1.8159553463275441e-05 1.8539880058968984e-05 -6.1755400956459150e-06 -2.2827645142651110e-05 -1.7331726767342692e-05 -2.2436209747018609e-05 -3.3672460368286243e-05 -2.5278080534195087e-05 -2.8205474874711065e-06 -5.6777459420654340e-06 -1.4398628345638209e-05 -1.4074763597024358e-05 -6.8301079787598182e-06 -5.5424434310556367e-06 -1.9560073974381588e-05 -4.0288703289469499e-05 -4.9800112351268931e-06 -6.4245631762938939e-06 -6.6056457548881696e-06 -6.6723063983425632e-07 9.0119217317232402e-06 2.2052388170561935e-05 -1.2272492808346018e-06 -3.3946563178020688e-06 -1.2080873181497843e-05 1.1666364328052556e-06 5.2144963312389121e-05 9.5061880675600605e-06 -1.0040866611532324e-05 2.3170659219791043e-05 3.6865504285743013e-05 4.7134491821114975e-05 1.5720942846372040e-05 -1.6240776064798193e-05 1.3364980063673530e-05 4.3088572987562065e-05 4.4757271420901249e-05 1.2556329538213062e-05 -1.3140138911055862e-05 1.0690399564522359e-05 4.3668925631227228e-05 3.2385193451069626e-05 1.4723138621911165e-05 -9.5018719663501200e-06 1.0714808219972928e-05 5.0992926576544795e-05 9.5586431304332461e-06 -3.0558128525253782e-06 -8.0309069979511531e-06 1.0642019868804028e-05 6.3207828742573718e-06 7.6308535837147848e-06 1.2659749398662851e-05 -1.3811460524280894e-05 3.6109778598866250e-06 3.9915541704383349e-06 -3.8890696991754001e-05 -2.7123175557002954e-05 -1.3820212478438815e-05 -2.8951386260244426e-06 -1.3153951055666635e-05 -1.4084219069099811e-05 -1.2838131193961336e-05 1.0154838332139884e-06 -2.7470153170359784e-05 -4.2082936365055081e-05 -2.9698889672588082e-05 -1.9677870119517733e-05 -1.8634234571707339e-05 5.2111902588544354e-06 1.8158264548224362e-05 1.5185866225514520e-05 -2.7149836819505800e-06 -2.4017617193388937e-05 -2.5777660919297420e-05 -2.2019025220109713e-05 1.7267415469365138e-05 -2.8588448425628191e-05 -4.1108201083610036e-05 7.4391120230945032e-07 4.4167362135787407e-05 4.7409015870325012e-05 1.6348036196100167e-06 -4.0183516396953469e-05 -2.2078816592754381e-05 9.7546940956766068e-06 
</DataArray>
</PointData>
<CellData></CellData>
<Points>
<DataArray type="Float64" Name="Points" NumberOfComponents="3" format="ascii">
-0.818182 -0.818182 0.000000 -0.818182 -0.636364 0.000000 -0.818182 -0.454545 0.000000 -0.818182 -0.272727 0.000000 -0.818182 -0.090909 0.000000 -0.818182 0.090909 0.000000 -0.818182 0.272727 0.000000 -0.818182 0.454545 0.000000 -0.818182 0.636364 0.000000 -0.818182 0.818182 0.000000 -0.636364 -0.818182 0.000000 -0.636364 -0.636364 0.000000 -0.636364 -0.454545 0.000000 -0.636364 -0.272727 0.000000 -0.636364 -0.090909 0.000000 -0.636364 0.090909 0.000000 -0.636364 0.272727 0.000000 -0.636364 0.454545 0.000000 -0.636364 0.636364 0.000000 -0.636364 0.818182 0.000000 -0.454545 -0.818182 0.000000 -0.454545 -0.636364 0.000000 -0.454545 -0.454545 0.000000 -0.454545 -0.272727 0.000000 -0.454545 -0.090909 0.000000 -0.454545 0.090909 0.000000 -0.454545 0.272727 0.000000 -0.454545 0.454545 0.000000 -0.454545 0.636364 0.000000 -0.454545 0.818182 0.000000 -0.272727 -0.818182 0.000000 -0.272727 -0.636364 0.000000 -0.272727 -0.454545 0.000000 -0.272727 -0.272727 0.000000 -0.272727 -0.090909 0.000000 -0.272727 0.090909 0.000000 -0.272727 0.272727 0.000000 -0.272727 0.454545 0.000000 -0.272727 0.636364 0.000000 -0.272727 0.818182 0.000000 -0.090909 -0.818182 0.000000 -0.090909 -0.636364 0.000000 -0.090909 -0.454545 0.000000 -0.090909 -0.272727 0.000000 -0.090909 -0.090909 0.000000 -0.090909 0.090909 0.000000 -0.090909 0.272727 0.000000 -0.090909 0.454545 0.000000 -0.090909 0.636364 0.000000 -0.090909 0.818182 0.000000 0.090909 -0.818182 0.000000 0.090909 -0.636364 0.000000 0.090909 -0.454545 0.000000 0.090909 -0.272727 0.000000 0.090909 -0.090909 0.000000 0.090909 0.090909 0.000000 0.090909 0.272727 0.000000 0.090909 0.454545 0.000000 0.090909 0.636364 0.000000 0.090909 0.818182 0.000000 0.272727 -0.818182 0.000000 0.272727 -0.636364 0.000000 0.272727 -0.454545 0.000000 0.272727 -0.272727 0.000000 0.272727 -0.090909 0.000000 0.272727 0.090909 0.000000 0.272727 0.272727 0.000000 0.272727 0.454545 0.000000 0.272727 0.636364 0.000000 0.272727 0.818182 0.000000 0.454545 -0.818182 0.000000 0.454545 -0.636364 0.000000 0.454545 -0.454545 0.000000 0.454545 -0.272727 0.000000 0.454545 -0.090909 0.000000 0.454545 0.090909 0.000000 0.454545 0.272727 0.000000 0.454545 0.454545 0.000000 0.454545 0.636364 0.000000 0.454545 0.818182 0.000000 0.636364 -0.818182 0.000000 0.636364 -0.636364 0.000000 0.636364 -0.454545 0.000000 0.636364 -0.272727 0.000000 0.636364 -0.090909 0.000000 0.636364 0.090909 0.000000 0.636364 0.272727 0.000000 0.636364 0.454545 0.000000 0.636364 0.636364 0.000000 0.636364 0.818182 0.000000 0.818182 -0.818182 0.000000 0.818182 -0.636364 0.000000 0.818182 -0.454545 0.000000 0.818182 -0.272727 0.000000 0.818182 -0.090909 0.000000 0.818182 0.090909 0.000000 0.818182 0.272727 0.000000 0.818182 0.454545 0.000000 0.818182 0.636364 0.000000 0.818182 0.818182 0.000000 
</DataArray>
</Points>
</Piece>
</StructuredGrid>
</VTKFile>
