<VTKFile type="StructuredGrid" version="1.0" byte_order="LittleEndian" header_type="UInt64">
<StructuredGrid WholeExtent="0 9 0 9 0 0">
<Piece Extent="0 9 0 9 0 0">
<PointData Scalars="residual">
<DataArray type="Float64" Name="residual" format="ascii">
-1.0624990294607441e-05 -5.8085273204816674e-06 -4.4890266599864647e-06 3.3556467135457230e-05 6.7587014960485137e-05 5.9390067690171270e-05 2.0800051862855526e-05 1.4896669916909897e-06 -1.4744610296318842e-05 -1.1850035611802158e-05 -1.5188852100692080e-06 -5.2912884752940681e-06 -1.1274838274141542e-05 2.4741674168925545e-05 5.9189831878384610e-05 6.0289482966157564e-05 1.2508739049429344e-05 -1.5686824546709690e-05 -8.9883414762954545e-06 -7.7427826195649908e-06 1.0544539033804906e-05 -6.3823450222175637e-06 -2.2027815501334353e-05 2.2184146255033437e-05 4.1601075581390590e-05 4.2121993149460890e-05 9.3111360936554621e-06 -2.1642031139037225e-05 -4.5033385700341512e-06 -7.6927104321367778e-06 3.1569772017274960e-05 2.0937563306184744e-05 1.7529152705962419e-05 3.1439412880298820e-06 -3.6421274163395134e-06 1.6276995505083713e-06 1.6826805684975500e-05 1.2764487506555918e-05 1.2567453540471892e-05 3.5748665138537913e-05 5.4540136061460008e-05 6.4070072850085720e-05 5.1464886143659733e-05 1.2210559221750850e-05 -2.5719895761982386e-05 -3.8556354389665537e-05 3.8926164356318377e-06 4.8815666280643301e-05 6.1883334250407507e-05 5.8248423117601559e-05 6.1244822962045527e-05 5.3939920898550260e-05 5.0323993818551229e-05 -8.6582752545881492e-07 -3.2302766797057819e-05 -2.8717763515494904e-05 1.2018778593275714e-05 4.8994846519556396e-05 4.9607595334594571e-05 5.2667454548912401e-05 2.6942435435458890e-05 2.2529437861063082e-05 2.1769533375687084e-05 7.7132919244025239e-06 4.4291108985319155e-06 1.0328832795699142e-05 1.4353466446625184e-05 1.2025313816470674e-05 1.4767371618682335e-05 3.7307626398190195e-05 9.8377653509926014e-06 -1.8759326678057470e-05 -1.5425941120622123e-05 1.8616475646660892e-05 4.8084452150731890e-05 5.7348576692552037e-05 1.1333031642403739e-05 -1.1254151661360978e-05 -8.8797415618939774e-06 7.0420379530742683e-06 -5.8092282906163047e-06 -2.0032242183322744e-05 -3.9989800000462400e-06 1.6772421025809127e-05 5.7767239740743118e-05 6.7206214425235807e-05 1.7431570278552127e-05 -1.4113662531309530e-05 -2.0965249345791414e-05 -5.9147119175527646e-06 -4.4160444292888627e-06 3.1735661435436513e-06 -4.7729960000726337e-06 3.8990984776495461e-05 6.8162321408839026e-05 6.1212255987164242e-05 3.7290162916535504e-05 2.4727897338204660e-07 -2.5641058814529697e-06 3.0091013855978180e-06 
</DataArray>
</PointData>
<CellData></CellData>
<Points>
<DataArray type="Float64" Name="Points" NumberOfComponents="3" format="ascii">
-0.818182 -0.818182 0.000000 -0.818182 -0.636364 0.000000 -0.818182 -0.454545 0.000000 -0.818182 -0.272727 0.000000 -0.818182 -0.090909 0.000000 -0.818182 0.090909 0.000000 -0.818182 0.272727 0.000000 -0.818182 0.454545 0.000000 -0.818182 0.636364 0.000000 -0.818182 0.818182 0.000000 -0.636364 -0.818182 0.000000 -0.636364 -0.636364 0.000000 -0.636364 -0.454545 0.000000 -0.636364 -0.272727 0.000000 -0.636364 -0.090909 0.000000 -0.636364 0.090909 0.000000 -0.636364 0.272727 0.000000 -0.636364 0.454545 0.000000 -0.636364 0.636364 0.000000 -0.636364 0.818182 0.000000 -0.454545 -0.818182 0.000000 -0.454545 -0.636364 0.000000 -0.454545 -0.454545 0.000000 -0.454545 -0.272727 0.000000 -0.454545 -0.090909 0.000000 -0.454545 0.090909 0.000000 -0.454545 0.272727 0.000000 -0.454545 0.454545 0.000000 -0.454545 0.636364 0.000000 -0.454545 0.818182 0.000000 -0.272727 -0.818182 0.000000 -0.272727 -0.636364 0.000000 -0.272727 -0.454545 0.000000 -0.272727 -0.272727 0.000000 -0.272727 -0.090909 0.000000 -0.272727 0.090909 0.000000 -0.272727 0.272727 0.000000 -0.272727 0.454545 0.000000 -0.272727 0.636364 0.000000 -0.272727 0.818182 0.000000 -0.090909 -0.818182 0.000000 -0.090909 -0.636364 0.000000 -0.090909 -0.454545 0.000000 -0.090909 -0.272727 0.000000 -0.090909 -0.090909 0.000000 -0.090909 0.090909 0.000000 -0.090909 0.272727 0.000000 -0.090909 0.454545 0.000000 -0.090909 0.636364 0.000000 -0.090909 0.818182 0.000000 0.090909 -0.818182 0.000000 0.090909 -0.636364 0.000000 0.090909 -0.454545 0.000000 0.090909 -0.272727 0.000000 0.090909 -0.090909 0.000000 0.090909 0.090909 0.000000 0.090909 0.272727 0.000000 0.090909 0.454545 0.000000 0.090909 0.636364 0.000000 0.090909 0.818182 0.000000 0.272727 -0.818182 0.000000 0.272727 -0.636364 0.000000 0.272727 -0.454545 0.000000 0.272727 -0.272727 0.000000 0.272727 -0.090909 0.000000 0.272727 0.090909 0.000000 0.272727 0.272727 0.000000 0.272727 0.454545 0.000000 0.272727 0.636364 0.000000 0.272727 0.818182 0.000000 0.454545 -0.818182 0.000000 0.454545 -0.636364 0.000000 0.454545 -0.454545 0.000000 0.454545 -0.272727 0.000000 0.454545 -0.090909 0.000000 0.454545 0.090909 0.000000 0.454545 0.272727 0.000000 0.454545 0.454545 0.000000 0.454545 0.636364 0.000000 0.454545 0.818182 0.000000 0.636364 -0.818182 0.000000 0.636364 -0.636364 0.000000 0.636364 -0.454545 0.000000 0.636364 -0.272727 0.000000 0.636364 -0.090909 0.000000 0.636364 0.090909 0.000000 0.636364 0.272727 0.000000 0.636364 0.454545 0.000000 0.636364 0.636364 0.000000 0.636364 0.818182 0.000000 0.818182 -0.818182 0.000000 0.818182 -0.636364 0.000000 0.818182 -0.454545 0.000000 0.818182 -0.272727 0.000000 0.818182 -0.090909 0.000000 0.818182 0.090909 0.000000 0.818182 0.272727 0.000000 0.818182 0.454545 0.000000 0.818182 0.636364 0.000000 0.818182 0.818182 0.000000 
</DataArray>
</Points>
</Piece>
</StructuredGrid>
</VTKFile>
