<VTKFile type="StructuredGrid" version="1.0" byte_order="LittleEndian" header_type="UInt64">
<StructuredGrid WholeExtent="0 9 0 9 0 0">
<Piece Extent="0 9 0 9 0 0">
<PointData Scalars="residual">
<DataArray type="Float64" Name="residual" format="ascii">
-3.9851623339451706e-05 -2.1866035724969150e-05 -2.1281444057340867e-05 -1.6452342086198694e-05 -8.3325310700100175e-06 3.2833793595483073e-06 -1.7236397671110786e-05 -2.6713937798123811e-05 -3.4838408160547171e-05 -3.3263308272281356e-05 -2.2126917450123167e-05 -3.6809253804566129e-05 -2.9992713777633306e-05 -3.1148205279878105e-06 7.5921458015824547e-06 1.1832162559911527e-05 -6.3079048946224417e-06 -1.0749688354812388e-05 -1.8317889065090002e-05 -3.4774480923485934e-05 -2.6724611239490118e-05 -1.5660930741318892e-05 -1.0066694740923192e-05 7.7214007971997123e-07 2.3711133983958521e-05 8.8964810821788587e-06 -1.5639943580243038e-06 -2.0587909047500332e-05 -2.8103302837370874e-05 -1.5041094001680389e-05 -1.5791696879199771e-05 -4.7246274762794901e-06 -6.9545300883273875e-06 -4.7781415231191657e-06 -9.6655612148227252e-06 -7.2273262271341232e-06 2.4835650515855553e-06 -5.9846913677526550e-06 1.7290919557631096e-06 -2.1616752265772045e-05 -6.0972939664870503e-07 5.5317557571196718e-06 2.0999456148421830e-05 -8.3193968214434477e-07 -1.9765066203869790e-05 -2.5839449142978392e-05 1.5328784944944329e-06 1.9936504419912002e-05 1.5129397981723976e-05 -3.5813897108292591e-06 -5.2635145980537649e-06 8.7163539589972874e-06 1.3624463289089658e-05 -2.9204787286921108e-06 -2.9923532501998501e-05 -1.9506552048640172e-05 -9.8056442642329919e-06 1.0895291321068312e-05 1.2082423740073477e-05 -3.2596290113979035e-06 -1.2634649648876335e-05 -7.6673175576436395e-06 3.8707095092547356e-06 -2.4057185809946494e-06 -1.4876514498832899e-07 -8.4323233085041582e-06 -5.7203685325081868e-06 1.8495820550742254e-06 -1.0978300630653214e-05 -1.4099573397661222e-05 -1.9137051190665872e-05 -1.5799907630393087e-05 -2.0095455427257894e-05 6.5312676758248062e-06 1.5112180760716576e-05 2.0440762495757547e-05 4.9283898359087433e-06 -7.2230346165221004e-06 -3.0026117436765445e-05 -2.2605643069239546e-05 -3.4461343292524569e-05 -3.2522243932592493e-05 -2.2605694186629381e-05 -3.5280507253675208e-07 5.3760406977642478e-06 9.4183419068706239e-06 -1.3455640813410906e-05 -1.3851165619155163e-05 -2.7897211257859439e-05 -2.2615463166082445e-05 -2.9420866958901858e-05 -3.0021533170313322e-05 -2.3314255490053675e-05 -1.2642976453140016e-05 1.6410894236125375e-06 -1.1156851255889359e-05 -6.8305094173770836e-06 -1.8911072915887665e-05 -3.5439542730270838e-05 -3.7009573967070226e-05 
</DataArray>
</PointData>
<CellData></CellData>
<Points>
<DataArray type="Float64" Name="Points" NumberOfComponents="3" format="ascii">
-0.818182 -0.818182 0.000000 -0.818182 -0.636364 0.000000 -0.818182 -0.454545 0.000000 -0.818182 -0.272727 0.000000 -0.818182 -0.090909 0.000000 -0.818182 0.090909 0.000000 -0.818182 0.272727 0.000000 -0.818182 0.454545 0.000000 -0.818182 0.636364 0.000000 -0.818182 0.818182 0.000000 -0.636364 -0.818182 0.000000 -0.636364 -0.636364 0.000000 -0.636364 -0.454545 0.000000 -0.636364 -0.272727 0.000000 -0.636364 -0.090909 0.000000 -0.636364 0.090909 0.000000 -0.636364 0.272727 0.000000 -0.636364 0.454545 0.000000 -0.636364 0.636364 0.000000 -0.636364 0.818182 0.000000 -0.454545 -0.818182 0.000000 -0.454545 -0.636364 0.000000 -0.454545 -0.454545 0.000000 -0.454545 -0.272727 0.000000 -0.454545 -0.090909 0.000000 -0.454545 0.090909 0.000000 -0.454545 0.272727 0.000000 -0.454545 0.454545 0.000000 -0.454545 0.636364 0.000000 -0.454545 0.818182 0.000000 -0.272727 -0.818182 0.000000 -0.272727 -0.636364 0.000000 -0.272727 -0.454545 0.000000 -0.272727 -0.272727 0.000000 -0.272727 -0.090909 0.000000 -0.272727 0.090909 0.000000 -0.272727 0.272727 0.000000 -0.272727 0.454545 0.000000 -0.272727 0.636364 0.000000 -0.272727 0.818182 0.000000 -0.090909 -0.818182 0.000000 -0.090909 -0.636364 0.000000 -0.090909 -0.454545 0.000000 -0.090909 -0.272727 0.000000 -0.090909 -0.090909 0.000000 -0.090909 0.090909 0.000000 -0.090909 0.272727 0.000000 -0.090909 0.454545 0.000000 -0.090909 0.636364 0.000000 -0.090909 0.818182 0.000000 0.090909 -0.818182 0.000000 0.090909 -0.636364 0.000000 0.090909 -0.454545 0.000000 0.090909 -0.272727 0.000000 0.090909 -0.090909 0.000000 0.090909 0.090909 0.000000 0.090909 0.272727 0.000000 0.090909 0.454545 0.000000 0.090909 0.636364 0.000000 0.090909 0.818182 0.000000 0.272727 -0.818182 0.000000 0.272727 -0.636364 0.000000 0.272727 -0.454545 0.000000 0.272727 -0.272727 0.000000 0.272727 -0.090909 0.000000 0.272727 0.090909 0.000000 0.272727 0.272727 0.000000 0.272727 0.454545 0.000000 0.272727 0.636364 0.000000 0.272727 0.818182 0.000000 0.454545 -0.818182 0.000000 0.454545 -0.636364 0.000000 0.454545 -0.454545 0.000000 0.454545 -0.272727 0.000000 0.454545 -0.090909 0.000000 0.454545 0.090909 0.000000 0.454545 0.272727 0.000000 0.454545 0.454545 0.000000 0.454545 0.636364 0.000000 0.454545 0.818182 0.000000 0.636364 -0.818182 0.000000 0.636364 -0.636364 0.000000 0.636364 -0.454545 0.000000 0.636364 -0.272727 0.000000 0.636364 -0.090909 0.000000 0.636364 0.090909 0.000000 0.636364 0.272727 0.000000 0.636364 0.454545 0.000000 0.636364 0.636364 0.000000 0.636364 0.818182 0.000000 0.818182 -0.818182 0.000000 0.818182 -0.636364 0.000000 0.818182 -0.454545 0.000000 0.818182 -0.272727 0.000000 0.818182 -0.090909 0.000000 0.818182 0.090909 0.000000 0.818182 0.272727 0.000000 0.818182 0.454545 0.000000 0.818182 0.636364 0.000000 0.818182 0.818182 0.000000 
</DataArray>
</Points>
</Piece>
</StructuredGrid>
</VTKFile>
