<VTKFile type="StructuredGrid" version="1.0" byte_order="LittleEndian" header_type="UInt64">
<StructuredGrid WholeExtent="0 9 0 9 0 0">
<Piece Extent="0 9 0 9 0 0">
<PointData Scalars="residual">
<DataArray type="Float64" Name="residual" format="ascii">
-7.1003382194689130e-05 4.5480923278341454e-05 1.0403641452799012e-04 2.9237168371666969e-05 -4.8579258184491131e-05 -5.1466492720952592e-05 4.0703290840082493e-05 1.0547388812451319e-04 4.1081918245563023e-05 -7.1153708194451014e-05 3.6737514511362562e-05 4.1148744813965243e-05 3.1201880035677809e-05 2.3206449175102936e-05 -3.2679816504678841e-06 -8.2924237942870113e-06 2.5701768640459810e-05 2.7412810901772042e-05 3.3799559402426446e-05 4.3613026199082472e-05 1.0592439301856764e-04 3.5964944915485575e-05 -1.7681761286296449e-05 -4.9873358822036945e-07 2.3768397391096124e-05 1.3125364908938685e-05 1.1450912186583735e-05 -8.7959075970849704e-06 3.0086448402332974e-05 1.0636112566136599e-04 3.3227523896617317e-05 2.0184545512500970e-05 6.2833680389388913e-06 1.0205736159887933e-05 9.5475991907737617e-07 7.1292365597854651e-06 -8.1606512815975574e-07 3.5727238920707158e-06 1.9709449012236813e-05 3.7665502084921476e-05 -4.1112558040564545e-05 -1.3392925808632973e-05 3.0017170917552051e-05 3.3499829910754036e-06 -2.8912190824480211e-06 -3.1708021162347999e-06 1.2172919777706653e-05 1.6150932712819671e-05 -8.2586929225619138e-06 -4.2744899927541283e-05 -5.0970308842178402e-05 -9.4627391342208544e-06 1.8135074512057401e-05 1.0833278709975261e-06 -5.9662249557203284e-06 -1.4417199656682755e-07 1.0676034373449661e-05 1.6086192009314923e-05 2.2921935697878953e-06 -5.3468826253221316e-05 3.1726639112114943e-05 9.2466067252005429e-06 1.6591936863940421e-05 2.1219741647564598e-06 8.5521531423713923e-06 -2.9788199437004448e-06 1.3296907937456110e-05 9.8458263663152995e-07 1.0752183878750057e-05 2.7541177556647187e-05 1.0337291582169714e-04 3.7232886269226301e-05 -1.3698439948002863e-05 4.7034545394668281e-06 2.1765998599035906e-05 1.9884046070480291e-05 9.5599752289871054e-06 -1.6672374126735362e-05 3.7493842374418038e-05 1.0803904764472745e-04 4.2234729653719758e-05 3.9874621956457329e-05 3.2601457050751570e-05 1.4703620931661582e-05 -2.6994088090830440e-06 -6.4393096745061010e-06 9.6145679869749645e-06 3.3649734001117010e-05 4.8005099298989440e-05 3.5251435482159046e-05 -6.9396472019688307e-05 3.6098256913074181e-05 1.0145660582795007e-04 3.8330875622945293e-05 -4.7459855382379207e-05 -5.3164282859535783e-05 2.7889764170270157e-05 1.1214104792818536e-04 3.7185963885697296e-05 -6.9516371343112011e-05 
</DataArray>
</PointData>
<CellData></CellData>
<Points>
<DataArray type="Float64" Name="Points" NumberOfComponents="3" format="ascii">
-0.818182 -0.818182 0.000000 -0.818182 -0.636364 0.000000 -0.818182 -0.454545 0.000000 -0.818182 -0.272727 0.000000 -0.818182 -0.090909 0.000000 -0.818182 0.090909 0.000000 -0.818182 0.272727 0.000000 -0.818182 0.454545 0.000000 -0.818182 0.636364 0.000000 -0.818182 0.818182 0.000000 -0.636364 -0.818182 0.000000 -0.636364 -0.636364 0.000000 -0.636364 -0.454545 0.000000 -0.636364 -0.272727 0.000000 -0.636364 -0.090909 0.000000 -0.636364 0.090909 0.000000 -0.636364 0.272727 0.000000 -0.636364 0.454545 0.000000 -0.636364 0.636364 0.000000 -0.636364 0.818182 0.000000 -0.454545 -0.818182 0.000000 -0.454545 -0.636364 0.000000 -0.454545 -0.454545 0.000000 -0.454545 -0.272727 0.000000 -0.454545 -0.090909 0.000000 -0.454545 0.090909 0.000000 -0.454545 0.272727 0.000000 -0.454545 0.454545 0.000000 -0.454545 0.636364 0.000000 -0.454545 0.818182 0.000000 -0.272727 -0.818182 0.000000 -0.272727 -0.636364 0.000000 -0.272727 -0.454545 0.000000 -0.272727 -0.272727 0.000000 -0.272727 -0.090909 0.000000 -0.272727 0.090909 0.000000 -0.272727 0.272727 0.000000 -0.272727 0.454545 0.000000 -0.272727 0.636364 0.000000 -0.272727 0.818182 0.000000 -0.090909 -0.818182 0.000000 -0.090909 -0.636364 0.000000 -0.090909 -0.454545 0.000000 -0.090909 -0.272727 0.000000 -0.090909 -0.090909 0.000000 -0.090909 0.090909 0.000000 -0.090909 0.272727 0.000000 -0.090909 0.454545 0.000000 -0.090909 0.636364 0.000000 -0.090909 0.818182 0.000000 0.090909 -0.818182 0.000000 0.090909 -0.636364 0.000000 0.090909 -0.454545 0.000000 0.090909 -0.272727 0.000000 0.090909 -0.090909 0.000000 0.090909 0.090909 0.000000 0.090909 0.272727 0.000000 0.090909 0.454545 0.000000 0.090909 0.636364 0.000000 0.090909 0.818182 0.000000 0.272727 -0.818182 0.000000 0.272727 -0.636364 0.000000 0.272727 -0.454545 0.000000 0.272727 -0.272727 0.000000 0.272727 -0.090909 0.000000 0.272727 0.090909 0.000000 0.272727 0.272727 0.000000 0.272727 0.454545 0.000000 0.272727 0.636364 0.000000 0.272727 0.818182 0.000000 0.454545 -0.818182 0.000000 0.454545 -0.636364 0.000000 0.454545 -0.454545 0.000000 0.454545 -0.272727 0.000000 0.454545 -0.090909 0.000000 0.454545 0.090909 0.000000 0.454545 0.272727 0.000000 0.454545 0.454545 0.000000 0.454545 0.636364 0.000000 0.454545 0.818182 0.000000 0.636364 -0.818182 0.000000 0.636364 -0.636364 0.000000 0.636364 -0.454545 0.000000 0.636364 -0.272727 0.000000 0.636364 -0.090909 0.000000 0.636364 0.090909 0.000000 0.636364 0.272727 0.000000 0.636364 0.454545 0.000000 0.636364 0.636364 0.000000 0.636364 0.818182 0.000000 0.818182 -0.818182 0.000000 0.818182 -0.636364 0.000000 0.818182 -0.454545 0.000000 0.818182 -0.272727 0.000000 0.818182 -0.090909 0.000000 0.818182 0.090909 0.000000 0.818182 0.272727 0.000000 0.818182 0.454545 0.000000 0.818182 0.636364 0.000000 0.818182 0.818182 0.000000 
</DataArray>
</Points>
</Piece>
</StructuredGrid>
</VTKFile>
