<VTKFile type="StructuredGrid" version="1.0" byte_order="LittleEndian" header_type="UInt64">
<StructuredGrid WholeExtent="0 9 0 9 0 0">
<Piece Extent="0 9 0 9 0 0">
<PointData Scalars="residual">
<DataArray type="Float64" Name="residual" format="ascii">
-1.5158898296657036e-05 -1.5642607699854587e-05 -6.9736581361319258e-06 -5.7352355859073209e-06 2.1158523037939636e-05 5.7911499817446879e-06 1.2340851529272015e-05 -5.6231281824244833e-06 -1.8809705835801972e-05 -1.4123647547297467e-05 -1.5087209503364743e-05 -2.1651971540028250e-05 -1.7752297414345974e-05 -1.5906824997986152e-05 9.9918180462756773e-07 -4.2606766712796271e-06 -1.4754604166371948e-05 -2.5133485028684850e-05 -3.2858153880730399e-05 -1.9767436646306313e-05 -6.4367674728442459e-06 -3.2885160095160945e-05 -4.4091945348313961e-05 -2.8895723344829916e-05 -1.4897337972959342e-05 -2.5744046354107472e-05 -3.5296830774460709e-05 -3.1527153357933935e-05 -1.8665997959921472e-05 -3.6444196672502996e-06 4.6936208535968901e-06 -9.7655419847532052e-06 -2.8325730592520561e-05 -2.8265366713129889e-05 -2.5602009838451671e-05 -2.4952584618407464e-05 -1.9499139844405232e-05 -3.6551268497728509e-05 -1.2119999480740898e-05 1.1508993857612879e-06 9.8066104510840038e-06 -7.7855486470615465e-06 -2.2865248209630318e-05 -2.4721002554027420e-05 -2.3037297449529474e-05 -2.4941368628934348e-05 -3.3193194542047340e-05 -2.2188075382014241e-05 -3.9167359785130182e-06 1.1806310550926610e-05 1.2941766107744772e-05 -4.1103199788566566e-06 -2.7943291512961231e-05 -1.7441072499490770e-05 -1.7031595412640883e-05 -1.6278514788904859e-05 -2.5555030802405787e-05 -2.5023695191322796e-05 -2.6134260243549506e-06 1.0369179745758732e-05 9.0783334850547126e-06 -1.1895723866471586e-05 -2.4152932476984024e-05 -3.2504948787989187e-05 -2.0614906966392142e-05 -1.9511756609057358e-05 -2.1552076333466660e-05 -2.2434625352288178e-05 -1.8222243730435170e-05 1.0327630897015265e-05 -4.3609007978531039e-06 -2.5065293471081967e-05 -3.8585575651086095e-05 -2.6200980798188854e-05 -2.5102913552527834e-05 -1.8823499624886879e-05 -3.4001066827744810e-05 -4.0826234387324970e-05 -2.1848789227681131e-05 -7.8311528263408023e-06 -2.1496780462862061e-05 -2.5515830549826223e-05 -3.2112280830171556e-05 -1.4864448768511784e-05 -2.9451166874616339e-06 -1.1404824305762985e-05 -2.1337089493712533e-05 -2.3606628913820128e-05 -2.7200671629799313e-05 -1.8613447511244864e-05 -1.5942703254267013e-05 -9.8069680062526365e-06 -7.8817914871982114e-06 8.0785685187424044e-06 1.4615196165647035e-05 2.2152345651061701e-05 -1.0538362174251567e-06 -5.8094299666515414e-06 -5.4337296835869908e-06 -2.1314356056912828e-05 
</DataArray>
</PointData>
<CellData></CellData>
<Points>
<DataArray type="Float64" Name="Points" NumberOfComponents="3" format="ascii">
-0.818182 -0.818182 0.000000 -0.818182 -0.636364 0.000000 -0.818182 -0.454545 0.000000 -0.818182 -0.272727 0.000000 -0.818182 -0.090909 0.000000 -0.818182 0.090909 0.000000 -0.818182 0.272727 0.000000 -0.818182 0.454545 0.000000 -0.818182 0.636364 0.000000 -0.818182 0.818182 0.000000 -0.636364 -0.818182 0.000000 -0.636364 -0.636364 0.000000 -0.636364 -0.454545 0.000000 -0.636364 -0.272727 0.000000 -0.636364 -0.090909 0.000000 -0.636364 0.090909 0.000000 -0.636364 0.272727 0.000000 -0.636364 0.454545 0.000000 -0.636364 0.636364 0.000000 -0.636364 0.818182 0.000000 -0.454545 -0.818182 0.000000 -0.454545 -0.636364 0.000000 -0.454545 -0.454545 0.000000 -0.454545 -0.272727 0.000000 -0.454545 -0.090909 0.000000 -0.454545 0.090909 0.000000 -0.454545 0.272727 0.000000 -0.454545 0.454545 0.000000 -0.454545 0.636364 0.000000 -0.454545 0.818182 0.000000 -0.272727 -0.818182 0.000000 -0.272727 -0.636364 0.000000 -0.272727 -0.454545 0.000000 -0.272727 -0.272727 0.000000 -0.272727 -0.090909 0.000000 -0.272727 0.090909 0.000000 -0.272727 0.272727 0.000000 -0.272727 0.454545 0.000000 -0.272727 0.636364 0.000000 -0.272727 0.818182 0.000000 -0.090909 -0.818182 0.000000 -0.090909 -0.636364 0.000000 -0.090909 -0.454545 0.000000 -0.090909 -0.272727 0.000000 -0.090909 -0.090909 0.000000 -0.090909 0.090909 0.000000 -0.090909 0.272727 0.000000 -0.090909 0.454545 0.000000 -0.090909 0.636364 0.000000 -0.090909 0.818182 0.000000 0.090909 -0.818182 0.000000 0.090909 -0.636364 0.000000 0.090909 -0.454545 0.000000 0.090909 -0.272727 0.000000 0.090909 -0.090909 0.000000 0.090909 0.090909 0.000000 0.090909 0.272727 0.000000 0.090909 0.454545 0.000000 0.090909 0.636364 0.000000 0.090909 0.818182 0.000000 0.272727 -0.818182 0.000000 0.272727 -0.636364 0.000000 0.272727 -0.454545 0.000000 0.272727 -0.272727 0.000000 0.272727 -0.090909 0.000000 0.272727 0.090909 0.000000 0.272727 0.272727 0.000000 0.272727 0.454545 0.000000 0.272727 0.636364 0.000000 0.272727 0.818182 0.000000 0.454545 -0.818182 0.000000 0.454545 -0.636364 0.000000 0.454545 -0.454545 0.000000 0.454545 -0.272727 0.000000 0.454545 -0.090909 0.000000 0.454545 0.090909 0.000000 0.454545 0.272727 0.000000 0.454545 0.454545 0.000000 0.454545 0.636364 0.000000 0.454545 0.818182 0.000000 0.636364 -0.818182 0.000000 0.636364 -0.636364 0.000000 0.636364 -0.454545 0.000000 0.636364 -0.272727 0.000000 0.636364 -0.090909 0.000000 0.636364 0.090909 0.000000 0.636364 0.272727 0.000000 0.636364 0.454545 0.000000 0.636364 0.636364 0.000000 0.636364 0.818182 0.000000 0.818182 -0.818182 0.000000 0.818182 -0.636364 0.000000 0.818182 -0.454545 0.000000 0.818182 -0.272727 0.000000 0.818182 -0.090909 0.000000 0.818182 0.090909 0.000000 0.818182 0.272727 0.000000 0.818182 0.454545 0.000000 0.818182 0.636364 0.000000 0.818182 0.818182 0.000000 
</DataArray>
</Points>
</Piece>
</StructuredGrid>
</VTKFile>
