<VTKFile type="StructuredGrid" version="1.0" byte_order="LittleEndian" header_type="UInt64">
<StructuredGrid WholeExtent="0 9 0 9 0 0">
<Piece Extent="0 9 0 9 0 0">
<PointData Scalars="residual">
<DataArray type="Float64" Name="residual" format="ascii">
2.2599801427584769e-05 -1.1264215372707061e-05 -1.9362819530049057e-05 -5.8033488452473650e-06 2.3352595437343016e-05 2.0765548254321996e-05 1.0748097204389163e-06 -2.8954594546258018e-05 2.7773894907372199e-06 1.3938929607075143e-05 -1.1567704329290725e-05 -1.2154820962654092e-06 -4.5780667959445173e-06 -9.2849665527571304e-06 -2.0342693370100067e-05 -1.4492265720870718e-05 -8.8370226726799603e-06 -2.7218365502620218e-06 -1.2736451237459895e-05 -1.2516391221885359e-05 -2.2571164174122089e-05 -2.4119262250436174e-06 -3.9779794775776645e-06 -2.3439203088751644e-05 -2.1814887160705784e-05 -2.9506134134404862e-05 -1.7516758505773354e-05 4.5044882695920857e-06 -7.3004816476653425e-06 -1.3240776840944303e-05 -2.9197759102632219e-06 -9.6830959993273250e-06 -5.2179008088498909e-06 -1.4051571272670395e-05 1.7995141960366889e-06 -1.1115256618878400e-05 -4.4290537974597810e-06 -1.1913339555436400e-05 -8.9282730910090688e-06 -7.0876263892028987e-06 2.7479251293624756e-05 -1.4826776798208992e-05 -2.4792773663787158e-05 -3.2354966405744555e-06 1.0849083881042144e-05 1.7149596142883913e-05 -1.1598061125468219e-05 -2.9733732720864554e-05 -1.7174443029249146e-05 2.9671836184125191e-05 1.7346114876708955e-05 -1.4913444148449001e-05 -3.4110561690796262e-05 -4.0828762718908562e-06 7.7876369453423744e-06 9.4693191351915944e-06 -4.3860620546169737e-06 -3.1055116463050026e-05 -6.9400111089544525e-06 8.9678674554793253e-06 -8.2531380252853781e-06 -1.3715500581448770e-06 -2.3299085229927345e-05 -1.9997984818386459e-05 8.8108989889984154e-07 -1.2495602512805227e-05 -1.3701849804353267e-05 -1.5807663980558963e-05 -6.7725734953917420e-06 3.8175603435104503e-06 -2.0288576864645712e-05 -7.1015648428051498e-07 2.2879863211099777e-06 -8.2365656213787344e-06 -3.5716706139786707e-05 -2.6926392628912055e-05 -8.2956555096324290e-06 7.4737561764496099e-06 -1.3242527633907167e-05 -1.7824647097480252e-05 -5.5795108202388866e-07 -1.4087083598318673e-05 -1.9417356943388780e-06 -7.2279433113160534e-06 -2.2278505724314564e-05 -9.3791395762939968e-06 -1.8207614792036409e-05 -5.8678643596208821e-06 -1.0788026516020573e-05 -6.4855396911351823e-06 1.5457257433846346e-05 -6.9135993189086212e-06 -2.3124193374124240e-05 1.4170749898000448e-06 2.4697856325782159e-05 1.6532701891998607e-05 3.4718719509533973e-06 -1.5636424822011198e-05 -1.1098415816261815e-05 1.6732681361828709e-05 
</DataArray>
</PointData>
<CellData></CellData>
<Points>
<DataArray type="Float64" Name="Points" NumberOfComponents="3" format="ascii">
-0.818182 -0.818182 0.000000 -0.818182 -0.636364 0.000000 -0.818182 -0.454545 0.000000 -0.818182 -0.272727 0.000000 -0.818182 -0.090909 0.000000 -0.818182 0.090909 0.000000 -0.818182 0.272727 0.000000 -0.818182 0.454545 0.000000 -0.818182 0.636364 0.000000 -0.818182 0.818182 0.000000 -0.636364 -0.818182 0.000000 -0.636364 -0.636364 0.000000 -0.636364 -0.454545 0.000000 -0.636364 -0.272727 0.000000 -0.636364 -0.090909 0.000000 -0.636364 0.090909 0.000000 -0.636364 0.272727 0.000000 -0.636364 0.454545 0.000000 -0.636364 0.636364 0.000000 -0.636364 0.818182 0.000000 -0.454545 -0.818182 0.000000 -0.454545 -0.636364 0.000000 -0.454545 -0.454545 0.000000 -0.454545 -0.272727 0.000000 -0.454545 -0.090909 0.000000 -0.454545 0.090909 0.000000 -0.454545 0.272727 0.000000 -0.454545 0.454545 0.000000 -0.454545 0.636364 0.000000 -0.454545 0.818182 0.000000 -0.272727 -0.818182 0.000000 -0.272727 -0.636364 0.000000 -0.272727 -0.454545 0.000000 -0.272727 -0.272727 0.000000 -0.272727 -0.090909 0.000000 -0.272727 0.090909 0.000000 -0.272727 0.272727 0.000000 -0.272727 0.454545 0.000000 -0.272727 0.636364 0.000000 -0.272727 0.818182 0.000000 -0.090909 -0.818182 0.000000 -0.090909 -0.636364 0.000000 -0.090909 -0.454545 0.000000 -0.090909 -0.272727 0.000000 -0.090909 -0.090909 0.000000 -0.090909 0.090909 0.000000 -0.090909 0.272727 0.000000 -0.090909 0.454545 0.000000 -0.090909 0.636364 0.000000 -0.090909 0.818182 0.000000 0.090909 -0.818182 0.000000 0.090909 -0.636364 0.000000 0.090909 -0.454545 0.000000 0.090909 -0.272727 0.000000 0.090909 -0.090909 0.000000 0.090909 0.090909 0.000000 0.090909 0.272727 0.000000 0.090909 0.454545 0.000000 0.090909 0.636364 0.000000 0.090909 0.818182 0.000000 0.272727 -0.818182 0.000000 0.272727 -0.636364 0.000000 0.272727 -0.454545 0.000000 0.272727 -0.272727 0.000000 0.272727 -0.090909 0.000000 0.272727 0.090909 0.000000 0.272727 0.272727 0.000000 0.272727 0.454545 0.000000 0.272727 0.636364 0.000000 0.272727 0.818182 0.000000 0.454545 -0.818182 0.000000 0.454545 -0.636364 0.000000 0.454545 -0.454545 0.000000 0.454545 -0.272727 0.000000 0.454545 -0.090909 0.000000 0.454545 0.090909 0.000000 0.454545 0.272727 0.000000 0.454545 0.454545 0.000000 0.454545 0.636364 0.000000 0.454545 0.818182 0.000000 0.636364 -0.818182 0.000000 0.636364 -0.636364 0.000000 0.636364 -0.454545 0.000000 0.636364 -0.272727 0.000000 0.636364 -0.090909 0.000000 0.636364 0.090909 0.000000 0.636364 0.272727 0.000000 0.636364 0.454545 0.000000 0.636364 0.636364 0.000000 0.636364 0.818182 0.000000 0.818182 -0.818182 0.000000 0.818182 -0.636364 0.000000 0.818182 -0.454545 0.000000 0.818182 -0.272727 0.000000 0.818182 -0.090909 0.000000 0.818182 0.090909 0.000000 0.818182 0.272727 0.000000 0.818182 0.454545 0.000000 0.818182 0.636364 0.000000 0.818182 0.818182 0.000000 
</DataArray>
</Points>
</Piece>
</StructuredGrid>
</VTKFile>
