<VTKFile type="StructuredGrid" version="1.0" byte_order="LittleEndian" header_type="UInt64">
<StructuredGrid WholeExtent="0 9 0 9 0 0">
<Piece Extent="0 9 0 9 0 0">
<PointData Scalars="residual">
<DataArray type="Float64" Name="residual" format="ascii">
7.6497714354079385e-06 1.0439917063659061e-05 1.5174244023339473e-05 -8.6616287429475483e-06 -3.4406972765786605e-05 -4.1659291979539818e-05 -7.8152245569862791e-06 6.5094938610293571e-06 2.0094387291941154e-05 2.3032550293257230e-06 2.2287162707371189e-05 -1.2125806438966803e-06 -4.7229660135013687e-06 -1.5499908623409133e-05 -2.8628688068461797e-05 -2.9689484112625157e-05 -1.1739636738021444e-05 -4.3588103703397219e-06 4.0219388027615439e-06 1.9006455875387150e-05 6.1054574568416772e-06 -2.8143113096003487e-06 -2.1109047404260480e-05 -1.0498629723648938e-05 -2.0202108564767833e-05 -2.6695284515806071e-05 -1.4735149783957685e-05 -2.5451741673428521e-05 -4.0740649904389900e-06 1.2821114468075309e-05 -1.4993237554715086e-06 -2.2358551825529382e-05 -2.6032871952350435e-05 -1.2947158054785537e-05 4.6069790834973173e-06 -1.0650812984552144e-05 -1.7733030887530192e-05 -1.7316750845722045e-05 -1.4761917199070888e-05 -1.3547017396249410e-05 -3.2490810165374927e-05 -3.5331067280478163e-05 -9.8512815850061372e-06 -4.3338670430402570e-06 2.1043072558610265e-05 1.2092332437214914e-05 -3.3897393563291078e-06 -1.7668032049465709e-05 -2.3255008341217657e-05 -3.7536137780386832e-05 -3.7329404230566562e-05 -3.5512819738376593e-05 -1.6656782275449589e-05 -5.8650639634914847e-06 1.7512043556468238e-05 2.3584608181637101e-05 -2.4794872411342678e-06 -2.5555154663669047e-05 -2.3083264936609756e-05 -3.2605582442244829e-05 -9.6668113582542084e-06 -2.2483832538164718e-05 -1.5536485694129252e-05 -4.7366209476526477e-06 -6.4321561385020931e-06 -6.0230218803369179e-06 -6.8851397973367784e-06 -2.5174249911942038e-05 -2.0466617157505890e-05 -2.0892047719153935e-05 1.7688826582423246e-05 -4.4242122230067973e-06 -2.1735703314224291e-05 -2.1659476985209838e-05 -1.8289659305835079e-05 -2.1019710496544136e-05 -1.0844730511334888e-05 -2.7728173245861751e-05 -4.4156869507729762e-06 1.7402362185268451e-05 8.7382723463315728e-06 1.3634461021521955e-05 6.1812816495952078e-08 -2.4733185950207796e-05 -3.3485497305917402e-05 -2.7665499383588044e-05 -1.2866450275352210e-05 3.6981864971188591e-07 6.2634683252850779e-06 1.4795095281779601e-05 8.9688711371565914e-06 1.2632537815137745e-05 1.4903104839010008e-05 -1.2105472797415903e-05 -3.8990637455998609e-05 -2.6003940907029510e-05 -1.4482712097078042e-05 1.0937460643676775e-05 2.0245761890941294e-05 1.6722490225138525e-06 
</DataArray>
</PointData>
<CellData></CellData>
<Points>
<DataArray type="Float64" Name="Points" NumberOfComponents="3" format="ascii">
-0.818182 -0.818182 0.000000 -0.818182 -0.636364 0.000000 -0.818182 -0.454545 0.000000 -0.818182 -0.272727 0.000000 -0.818182 -0.090909 0.000000 -0.818182 0.090909 0.000000 -0.818182 0.272727 0.000000 -0.818182 0.454545 0.000000 -0.818182 0.636364 0.000000 -0.818182 0.818182 0.000000 -0.636364 -0.818182 0.000000 -0.636364 -0.636364 0.000000 -0.636364 -0.454545 0.000000 -0.636364 -0.272727 0.000000 -0.636364 -0.090909 0.000000 -0.636364 0.090909 0.000000 -0.636364 0.272727 0.000000 -0.636364 0.454545 0.000000 -0.636364 0.636364 0.000000 -0.636364 0.818182 0.000000 -0.454545 -0.818182 0.000000 -0.454545 -0.636364 0.000000 -0.454545 -0.454545 0.000000 -0.454545 -0.272727 0.000000 -0.454545 -0.090909 0.000000 -0.454545 0.090909 0.000000 -0.454545 0.272727 0.000000 -0.454545 0.454545 0.000000 -0.454545 0.636364 0.000000 -0.454545 0.818182 0.000000 -0.272727 -0.818182 0.000000 -0.272727 -0.636364 0.000000 -0.272727 -0.454545 0.000000 -0.272727 -0.272727 0.000000 -0.272727 -0.090909 0.000000 -0.272727 0.090909 0.000000 -0.272727 0.272727 0.000000 -0.272727 0.454545 0.000000 -0.272727 0.636364 0.000000 -0.272727 0.818182 0.000000 -0.090909 -0.818182 0.000000 -0.090909 -0.636364 0.000000 -0.090909 -0.454545 0.000000 -0.090909 -0.272727 0.000000 -0.090909 -0.090909 0.000000 -0.090909 0.090909 0.000000 -0.090909 0.272727 0.000000 -0.090909 0.454545 0.000000 -0.090909 0.636364 0.000000 -0.090909 0.818182 0.000000 0.090909 -0.818182 0.000000 0.090909 -0.636364 0.000000 0.090909 -0.454545 0.000000 0.090909 -0.272727 0.000000 0.090909 -0.090909 0.000000 0.090909 0.090909 0.000000 0.090909 0.272727 0.000000 0.090909 0.454545 0.000000 0.090909 0.636364 0.000000 0.090909 0.818182 0.000000 0.272727 -0.818182 0.000000 0.272727 -0.636364 0.000000 0.272727 -0.454545 0.000000 0.272727 -0.272727 0.000000 0.272727 -0.090909 0.000000 0.272727 0.090909 0.000000 0.272727 0.272727 0.000000 0.272727 0.454545 0.000000 0.272727 0.636364 0.000000 0.272727 0.818182 0.000000 0.454545 -0.818182 0.000000 0.454545 -0.636364 0.000000 0.454545 -0.454545 0.000000 0.454545 -0.272727 0.000000 0.454545 -0.090909 0.000000 0.454545 0.090909 0.000000 0.454545 0.272727 0.000000 0.454545 0.454545 0.000000 0.454545 0.636364 0.000000 0.454545 0.818182 0.000000 0.636364 -0.818182 0.000000 0.636364 -0.636364 0.000000 0.636364 -0.454545 0.000000 0.636364 -0.272727 0.000000 0.636364 -0.090909 0.000000 0.636364 0.090909 0.000000 0.636364 0.272727 0.000000 0.636364 0.454545 0.000000 0.636364 0.636364 0.000000 0.636364 0.818182 0.000000 0.818182 -0.818182 0.000000 0.818182 -0.636364 0.000000 0.818182 -0.454545 0.000000 0.818182 -0.272727 0.000000 0.818182 -0.090909 0.000000 0.818182 0.090909 0.000000 0.818182 0.272727 0.000000 0.818182 0.454545 0.000000 0.818182 0.636364 0.000000 0.818182 0.818182 0.000000 
</DataArray>
</Points>
</Piece>
</StructuredGrid>
</VTKFile>
