<VTKFile type="StructuredGrid" version="1.0" byte_order="LittleEndian" header_type="UInt64">
<StructuredGrid WholeExtent="0 9 0 9 0 0">
<Piece Extent="0 9 0 9 0 0">
<PointData Scalars="residual">
<DataArray type="Float64" Name="residual" format="ascii">
-2.7937457160124224e-05 -9.4068524165639815e-06 9.1161633254148097e-06 2.3558792737651477e-05 2.1228190794067049e-05 2.1884851896111605e-05 2.3366051705240275e-05 6.0527627303340673e-06 -3.2085008057586122e-06 -3.3801155838532478e-05 -1.1896167496369160e-05 -3.2957940610967712e-06 -9.0534041728741743e-06 -5.9150179381045609e-06 1.3375413554289270e-05 1.0630563799497728e-05 8.4063579489403184e-06 -1.3961898289545013e-05 -1.1563780116931148e-05 -7.8284444786436494e-06 1.7227262225645579e-05 -1.6528966524313737e-05 -3.1780521717180224e-05 -1.1178214774389822e-05 1.4554864948836468e-05 2.3063035957069170e-05 -1.4777462497773258e-05 -2.6863364129998957e-05 -8.4856274630597250e-06 1.1487175357519433e-05 1.4619411957062650e-05 5.2756558329668246e-06 -5.5337180874023145e-06 -6.5955814365914467e-06 1.0780086551874339e-05 4.2434238589897019e-06 4.4713662156192768e-06 -1.7965555915953890e-05 2.4539274433871966e-06 2.2703232299805046e-05 1.7559124623511488e-05 1.8432101648103646e-05 2.0349696717481686e-05 9.5645007479189248e-06 -6.8390965955993782e-06 -7.5501219887873922e-06 8.5039629499263775e-06 1.8910075082945524e-05 1.3506647877943936e-05 2.5570749454657121e-05 2.8742845632991586e-05 1.6046703210681121e-05 9.6812632362081041e-06 -8.4856703956408264e-07 3.8443711513260620e-06 -8.5299889488604785e-06 1.0361246721097075e-05 1.0604283678036786e-05 2.6300700159517104e-05 1.8884090999607417e-05 2.0715552159472801e-05 -2.8975576962901595e-06 -7.5701773457129140e-06 8.0734197905104471e-06 6.8003436632805073e-06 9.7245086516737494e-07 -8.4254008788017809e-06 -3.0350912704792121e-06 -6.2280993828826153e-06 1.3776396212286136e-05 9.9546200027786705e-06 -1.7183078634488286e-05 -2.9936819005132315e-05 -1.1089754295597054e-07 7.9954392277429426e-06 1.6052021889981921e-05 -1.7237298496725409e-05 -2.0732808481244494e-05 -1.4265576655011353e-05 2.0652300635122176e-05 -1.3749162129845539e-06 -6.6752797763455773e-06 -1.4204234569038104e-05 -1.6452208186981676e-06 2.3823245085116337e-05 2.0031924292462228e-05 5.6880204036199866e-06 -1.2515804486972967e-05 -1.4860263618290612e-05 -8.9056748714330669e-06 -3.2758903347969128e-05 -1.1806360583679724e-05 1.7374419177769440e-05 1.5929933785976090e-05 1.5810925738351210e-05 2.4516841350712658e-05 2.3308771335567129e-05 4.3088327939862919e-06 2.5837466136246698e-06 -3.7202266547560622e-05 
</DataArray>
</PointData>
<CellData></CellData>
<Points>
<DataArray type="Float64" Name="Points" NumberOfComponents="3" format="ascii">
-0.818182 -0.818182 0.000000 -0.818182 -0.636364 0.000000 -0.818182 -0.454545 0.000000 -0.818182 -0.272727 0.000000 -0.818182 -0.090909 0.000000 -0.818182 0.090909 0.000000 -0.818182 0.272727 0.000000 -0.818182 0.454545 0.000000 -0.818182 0.636364 0.000000 -0.818182 0.818182 0.000000 -0.636364 -0.818182 0.000000 -0.636364 -0.636364 0.000000 -0.636364 -0.454545 0.000000 -0.636364 -0.272727 0.000000 -0.636364 -0.090909 0.000000 -0.636364 0.090909 0.000000 -0.636364 0.272727 0.000000 -0.636364 0.454545 0.000000 -0.636364 0.636364 0.000000 -0.636364 0.818182 0.000000 -0.454545 -0.818182 0.000000 -0.454545 -0.636364 0.000000 -0.454545 -0.454545 0.000000 -0.454545 -0.272727 0.000000 -0.454545 -0.090909 0.000000 -0.454545 0.090909 0.000000 -0.454545 0.272727 0.000000 -0.454545 0.454545 0.000000 -0.454545 0.636364 0.000000 -0.454545 0.818182 0.000000 -0.272727 -0.818182 0.000000 -0.272727 -0.636364 0.000000 -0.272727 -0.454545 0.000000 -0.272727 -0.272727 0.000000 -0.272727 -0.090909 0.000000 -0.272727 0.090909 0.000000 -0.272727 0.272727 0.000000 -0.272727 0.454545 0.000000 -0.272727 0.636364 0.000000 -0.272727 0.818182 0.000000 -0.090909 -0.818182 0.000000 -0.090909 -0.636364 0.000000 -0.090909 -0.454545 0.000000 -0.090909 -0.272727 0.000000 -0.090909 -0.090909 0.000000 -0.090909 0.090909 0.000000 -0.090909 0.272727 0.000000 -0.090909 0.454545 0.000000 -0.090909 0.636364 0.000000 -0.090909 0.818182 0.000000 0.090909 -0.818182 0.000000 0.090909 -0.636364 0.000000 0.090909 -0.454545 0.000000 0.090909 -0.272727 0.000000 0.090909 -0.090909 0.000000 0.090909 0.090909 0.000000 0.090909 0.272727 0.000000 0.090909 0.454545 0.000000 0.090909 0.636364 0.000000 0.090909 0.818182 0.000000 0.272727 -0.818182 0.000000 0.272727 -0.636364 0.000000 0.272727 -0.454545 0.000000 0.272727 -0.272727 0.000000 0.272727 -0.090909 0.000000 0.272727 0.090909 0.000000 0.272727 0.272727 0.000000 0.272727 0.454545 0.000000 0.272727 0.636364 0.000000 0.272727 0.818182 0.000000 0.454545 -0.818182 0.000000 0.454545 -0.636364 0.000000 0.454545 -0.454545 0.000000 0.454545 -0.272727 0.000000 0.454545 -0.090909 0.000000 0.454545 0.090909 0.000000 0.454545 0.272727 0.000000 0.454545 0.454545 0.000000 0.454545 0.636364 0.000000 0.454545 0.818182 0.000000 0.636364 -0.818182 0.000000 0.636364 -0.636364 0.000000 0.636364 -0.454545 0.000000 0.636364 -0.272727 0.000000 0.636364 -0.090909 0.000000 0.636364 0.090909 0.000000 0.636364 0.272727 0.000000 0.636364 0.454545 0.000000 0.636364 0.636364 0.000000 0.636364 0.818182 0.000000 0.818182 -0.818182 0.000000 0.818182 -0.636364 0.000000 0.818182 -0.454545 0.000000 0.818182 -0.272727 0.000000 0.818182 -0.090909 0.000000 0.818182 0.090909 0.000000 0.818182 0.272727 0.000000 0.818182 0.454545 0.000000 0.818182 0.636364 0.000000 0.818182 0.818182 0.000000 
</DataArray>
</Points>
</Piece>
</StructuredGrid>
</VTKFile>
