<VTKFile type="StructuredGrid" version="1.0" byte_order="LittleEndian" header_type="UInt64">
<StructuredGrid WholeExtent="0 9 0 9 0 0">
<Piece Extent="0 9 0 9 0 0">
<PointData Scalars="residual">
<DataArray type="Float64" Name="residual" format="ascii">
-1.6448475604679842e-05 -5.3273317148090941e-05 -9.7731892060382800e-05 -9.3437525577107477e-05 -9.5547416400800639e-05 -8.6771516175310204e-05 -9.0173216772848185e-05 -9.0963974555662193e-05 -5.9689075695999738e-05 -3.1103751929576536e-05 -6.1160703824083206e-05 -1.4282588527130685e-06 5.2039438307489513e-05 3.0027765123093533e-05 8.8321315512181198e-06 7.9007952017689370e-06 1.8124690331155525e-05 5.9845922440563380e-05 4.0035783669721894e-06 -6.3181722363259314e-05 -9.3520962656994631e-05 5.8617543596983790e-05 1.4624176127845008e-04 1.0767353409051744e-04 7.9348595627189850e-05 6.6900668159964802e-05 1.1794282485819325e-04 1.4860175886976558e-04 5.4104297022985332e-05 -8.7970714564249933e-05 -8.4922611827074109e-05 1.8172663334913366e-05 1.1557564307732547e-04 1.0051852061427648e-04 9.7094455245000377e-05 1.0827209161375952e-04 1.0217033169881463e-04 1.0970537300716322e-04 3.1628977533119246e-05 -9.7869136621928175e-05 -1.0005804070317356e-04 9.7252106994426268e-06 8.0425927603815228e-05 9.5815917300184558e-05 1.1514691408635869e-04 1.1548061985468955e-04 9.5173744598071180e-05 6.9850703809352585e-05 4.1870262810234787e-06 -8.6778177974131121e-05 -8.6113081494975340e-05 2.0546607627323216e-06 7.5210732366609231e-05 9.3551683332958671e-05 1.1342910314655376e-04 1.2249027666440086e-04 1.0191051330266966e-04 8.2376106511013875e-05 -4.4889468241160468e-06 -8.5101426522739623e-05 -9.2207811176858723e-05 2.0415827629269127e-05 1.1101625251927483e-04 1.0577926779411703e-04 9.6276206267478098e-05 9.6200246106219883e-05 1.0635036110824558e-04 1.1383126590564646e-04 1.9637954202457800e-05 -9.7257608249384786e-05 -9.2095391410096546e-05 5.3139221723920264e-05 1.5638066555606796e-04 1.1963391717581887e-04 7.3539446547763246e-05 7.8704852095419151e-05 1.1669027166387111e-04 1.4681547822108058e-04 5.0630542313714194e-05 -9.2195632668695855e-05 -7.3978380913126930e-05 6.5479334084767894e-06 5.6975817725013478e-05 3.3572276297591519e-05 6.6599346227810829e-06 4.2183556439590042e-09 1.7867784137224306e-05 5.7736997037561091e-05 6.7455466402580738e-06 -5.6752225954933341e-05 -1.8337853721097448e-05 -5.9348110947221979e-05 -1.0522399045484682e-04 -1.0178395916626880e-04 -8.3633521474368519e-05 -8.6072059493835611e-05 -1.0130308527272428e-04 -9.1893374696892880e-05 -6.0679363209197208e-05 -2.5965613356857464e-05 
</DataArray>
</PointData>
<CellData></CellData>
<Points>
<DataArray type="Float64" Name="Points" NumberOfComponents="3" format="ascii">
-0.818182 -0.818182 0.000000 -0.818182 -0.636364 0.000000 -0.818182 -0.454545 0.000000 -0.818182 -0.272727 0.000000 -0.818182 -0.090909 0.000000 -0.818182 0.090909 0.000000 -0.818182 0.272727 0.000000 -0.818182 0.454545 0.000000 -0.818182 0.636364 0.000000 -0.818182 0.818182 0.000000 -0.636364 -0.818182 0.000000 -0.636364 -0.636364 0.000000 -0.636364 -0.454545 0.000000 -0.636364 -0.272727 0.000000 -0.636364 -0.090909 0.000000 -0.636364 0.090909 0.000000 -0.636364 0.272727 0.000000 -0.636364 0.454545 0.000000 -0.636364 0.636364 0.000000 -0.636364 0.818182 0.000000 -0.454545 -0.818182 0.000000 -0.454545 -0.636364 0.000000 -0.454545 -0.454545 0.000000 -0.454545 -0.272727 0.000000 -0.454545 -0.090909 0.000000 -0.454545 0.090909 0.000000 -0.454545 0.272727 0.000000 -0.454545 0.454545 0.000000 -0.454545 0.636364 0.000000 -0.454545 0.818182 0.000000 -0.272727 -0.818182 0.000000 -0.272727 -0.636364 0.000000 -0.272727 -0.454545 0.000000 -0.272727 -0.272727 0.000000 -0.272727 -0.090909 0.000000 -0.272727 0.090909 0.000000 -0.272727 0.272727 0.000000 -0.272727 0.454545 0.000000 -0.272727 0.636364 0.000000 -0.272727 0.818182 0.000000 -0.090909 -0.818182 0.000000 -0.090909 -0.636364 0.000000 -0.090909 -0.454545 0.000000 -0.090909 -0.272727 0.000000 -0.090909 -0.090909 0.000000 -0.090909 0.090909 0.000000 -0.090909 0.272727 0.000000 -0.090909 0.454545 0.000000 -0.090909 0.636364 0.000000 -0.090909 0.818182 0.000000 0.090909 -0.818182 0.000000 0.090909 -0.636364 0.000000 0.090909 -0.454545 0.000000 0.090909 -0.272727 0.000000 0.090909 -0.090909 0.000000 0.090909 0.090909 0.000000 0.090909 0.272727 0.000000 0.090909 0.454545 0.000000 0.090909 0.636364 0.000000 0.090909 0.818182 0.000000 0.272727 -0.818182 0.000000 0.272727 -0.636364 0.000000 0.272727 -0.454545 0.000000 0.272727 -0.272727 0.000000 0.272727 -0.090909 0.000000 0.272727 0.090909 0.000000 0.272727 0.272727 0.000000 0.272727 0.454545 0.000000 0.272727 0.636364 0.000000 0.272727 0.818182 0.000000 0.454545 -0.818182 0.000000 0.454545 -0.636364 0.000000 0.454545 -0.454545 0.000000 0.454545 -0.272727 0.000000 0.454545 -0.090909 0.000000 0.454545 0.090909 0.000000 0.454545 0.272727 0.000000 0.454545 0.454545 0.000000 0.454545 0.636364 0.000000 0.454545 0.818182 0.000000 0.636364 -0.818182 0.000000 0.636364 -0.636364 0.000000 0.636364 -0.454545 0.000000 0.636364 -0.272727 0.000000 0.636364 -0.090909 0.000000 0.636364 0.090909 0.000000 0.636364 0.272727 0.000000 0.636364 0.454545 0.000000 0.636364 0.636364 0.000000 0.636364 0.818182 0.000000 0.818182 -0.818182 0.000000 0.818182 -0.636364 0.000000 0.818182 -0.454545 0.000000 0.818182 -0.272727 0.000000 0.818182 -0.090909 0.000000 0.818182 0.090909 0.000000 0.818182 0.272727 0.000000 0.818182 0.454545 0.000000 0.818182 0.636364 0.000000 0.818182 0.818182 0.000000 
</DataArray>
</Points>
</Piece>
</StructuredGrid>
</VTKFile>
