<VTKFile type="StructuredGrid" version="1.0" byte_order="LittleEndian" header_type="UInt64">
<StructuredGrid WholeExtent="0 9 0 9 0 0">
<Piece Extent="0 9 0 9 0 0">
<PointData Scalars="residual">
<DataArray type="Float64" Name="residual" format="ascii">
-1.5450381650870056e-04 3.1055325373481515e-05 1.4784142878159542e-04 5.4250797442504869e-05 -5.6113065252405038e-05 -5.5496996303795038e-05 5.3936279949796939e-05 1.4457506741935230e-04 3.7699455153819561e-05 -1.5902969033302857e-04 2.8185370830594112e-05 5.6865480442909108e-06 -2.2249082390629268e-05 -1.4525188783707024e-05 9.3507500808394373e-06 6.7135699357429024e-06 1.1919593242114279e-07 -2.6619228458828539e-05 -1.7913467923935320e-06 3.3307062888579542e-05 1.5501256080162253e-04 -3.0139548788561676e-05 -1.3960827635724898e-04 -4.1687016397085400e-05 6.1365016343508869e-05 7.0075616248124750e-05 -4.4678977431324499e-05 -1.3367897428815702e-04 -2.1130604791705712e-05 1.5004107354309529e-04 4.3276058502481583e-05 -4.2671168558414824e-06 -3.6126947394925571e-05 -6.7923795163092604e-06 4.0979719699969774e-05 3.4579737760839259e-05 4.6846103971664305e-06 -4.7875381454707405e-05 -6.4541245928771696e-06 5.1838568173629904e-05 -6.2912880861628467e-05 1.2957138534731502e-05 6.6990992742502198e-05 3.9679706211186681e-05 6.7500183059190921e-06 6.1099255238570085e-06 3.8831966246573660e-05 6.5906034163596555e-05 8.3355211340611912e-06 -5.4712476983265548e-05 -5.1425164081295334e-05 1.0687075283788428e-05 5.6314062532392475e-05 2.9328795786738929e-05 1.7566297507747713e-05 5.1995774649638699e-06 4.0561529719602973e-05 5.7275283261225968e-05 2.0837186818944975e-05 -6.1582345100873355e-05 5.0284186017453443e-05 -1.2094324825660113e-05 -3.8188896839741124e-05 8.0630937998992652e-06 3.7398411176087221e-05 3.1517321470550703e-05 -8.5953175916787805e-06 -3.3919795301618275e-05 -1.6013311209218603e-05 4.2362103098443626e-05 1.4925989743302514e-04 -3.0216984966337235e-05 -1.3780705728937311e-04 -3.0308912350481346e-05 5.5469647896934718e-05 6.3412196686927699e-05 -4.7777414920987041e-05 -1.2917321612671180e-04 -2.8372486967109464e-05 1.5829015050791879e-04 3.9555562461156789e-05 2.9127636259158526e-06 -2.7061561203998302e-05 -1.0256721786902970e-05 1.9457569783668666e-05 1.5639486270816599e-05 -3.0037687251734807e-06 -2.5506944722914274e-05 -5.9680798275901434e-06 3.0597391323836879e-05 -1.5957370420605869e-04 2.9223328864887675e-05 1.5695148100525625e-04 4.6163014209172140e-05 -6.3299975242746102e-05 -5.4484181826241172e-05 5.3871485171191891e-05 1.4443528364218878e-04 4.3581955369974539e-05 -1.6489629291787132e-04 
</DataArray>
</PointData>
<CellData></CellData>
<Points>
<DataArray type="Float64" Name="Points" NumberOfComponents="3" format="ascii">
-0.818182 -0.818182 0.000000 -0.818182 -0.636364 0.000000 -0.818182 -0.454545 0.000000 -0.818182 -0.272727 0.000000 -0.818182 -0.090909 0.000000 -0.818182 0.090909 0.000000 -0.818182 0.272727 0.000000 -0.818182 0.454545 0.000000 -0.818182 0.636364 0.000000 -0.818182 0.818182 0.000000 -0.636364 -0.818182 0.000000 -0.636364 -0.636364 0.000000 -0.636364 -0.454545 0.000000 -0.636364 -0.272727 0.000000 -0.636364 -0.090909 0.000000 -0.636364 0.090909 0.000000 -0.636364 0.272727 0.000000 -0.636364 0.454545 0.000000 -0.636364 0.636364 0.000000 -0.636364 0.818182 0.000000 -0.454545 -0.818182 0.000000 -0.454545 -0.636364 0.000000 -0.454545 -0.454545 0.000000 -0.454545 -0.272727 0.000000 -0.454545 -0.090909 0.000000 -0.454545 0.090909 0.000000 -0.454545 0.272727 0.000000 -0.454545 0.454545 0.000000 -0.454545 0.636364 0.000000 -0.454545 0.818182 0.000000 -0.272727 -0.818182 0.000000 -0.272727 -0.636364 0.000000 -0.272727 -0.454545 0.000000 -0.272727 -0.272727 0.000000 -0.272727 -0.090909 0.000000 -0.272727 0.090909 0.000000 -0.272727 0.272727 0.000000 -0.272727 0.454545 0.000000 -0.272727 0.636364 0.000000 -0.272727 0.818182 0.000000 -0.090909 -0.818182 0.000000 -0.090909 -0.636364 0.000000 -0.090909 -0.454545 0.000000 -0.090909 -0.272727 0.000000 -0.090909 -0.090909 0.000000 -0.090909 0.090909 0.000000 -0.090909 0.272727 0.000000 -0.090909 0.454545 0.000000 -0.090909 0.636364 0.000000 -0.090909 0.818182 0.000000 0.090909 -0.818182 0.000000 0.090909 -0.636364 0.000000 0.090909 -0.454545 0.000000 0.090909 -0.272727 0.000000 0.090909 -0.090909 0.000000 0.090909 0.090909 0.000000 0.090909 0.272727 0.000000 0.090909 0.454545 0.000000 0.090909 0.636364 0.000000 0.090909 0.818182 0.000000 0.272727 -0.818182 0.000000 0.272727 -0.636364 0.000000 0.272727 -0.454545 0.000000 0.272727 -0.272727 0.000000 0.272727 -0.090909 0.000000 0.272727 0.090909 0.000000 0.272727 0.272727 0.000000 0.272727 0.454545 0.000000 0.272727 0.636364 0.000000 0.272727 0.818182 0.000000 0.454545 -0.818182 0.000000 0.454545 -0.636364 0.000000 0.454545 -0.454545 0.000000 0.454545 -0.272727 0.000000 0.454545 -0.090909 0.000000 0.454545 0.090909 0.000000 0.454545 0.272727 0.000000 0.454545 0.454545 0.000000 0.454545 0.636364 0.000000 0.454545 0.818182 0.000000 0.636364 -0.818182 0.000000 0.636364 -0.636364 0.000000 0.636364 -0.454545 0.000000 0.636364 -0.272727 0.000000 0.636364 -0.090909 0.000000 0.636364 0.090909 0.000000 0.636364 0.272727 0.000000 0.636364 0.454545 0.000000 0.636364 0.636364 0.000000 0.636364 0.818182 0.000000 0.818182 -0.818182 0.000000 0.818182 -0.636364 0.000000 0.818182 -0.454545 0.000000 0.818182 -0.272727 0.000000 0.818182 -0.090909 0.000000 0.818182 0.090909 0.000000 0.818182 0.272727 0.000000 0.818182 0.454545 0.000000 0.818182 0.636364 0.000000 0.818182 0.818182 0.000000 
</DataArray>
</Points>
</Piece>
</StructuredGrid>
</VTKFile>
