<VTKFile type="StructuredGrid" version="1.0" byte_order="LittleEndian" header_type="UInt64">
<StructuredGrid WholeExtent="0 9 0 9 0 0">
<Piece Extent="0 9 0 9 0 0">
<PointData Scalars="residual">
<DataArray type="Float64" Name="residual" format="ascii">
-9.7500032042935469e-06 -2.9342981339301996e-06 2.9258380011702766e-06 5.3136147406322352e-05 9.9331510841058610e-05 9.1146088811441665e-05 4.0414307855811572e-05 8.9621578563327145e-06 -1.1857571294889906e-05 -1.1029677385218805e-05 1.5076014985036753e-06 3.0058455144240076e-06 3.9751256389675203e-06 5.1991015932163016e-05 9.8438551491750442e-05 9.9596433302002216e-05 3.9932772980102841e-05 -1.4570702120727245e-07 -5.6648992488906005e-07 -4.8523135652296087e-06 1.7966661789105504e-05 8.6208541120733940e-06 1.9162649761775963e-07 5.0525330575659018e-05 7.6064002223689693e-05 7.6780125764641573e-05 3.8237938332925350e-05 1.5534407243220717e-06 1.1123917267336233e-05 -2.4596583744807313e-07 5.0119940104709437e-05 4.6496308609267356e-05 4.4121209292429572e-05 1.2843511361091721e-05 -1.0835043856684615e-05 -4.9622263606878547e-06 2.8335347345478760e-05 4.2371496738760617e-05 4.0411888871765814e-05 5.5210179411383816e-05 8.4218349481028371e-05 1.0018436432195988e-04 8.2429557317642089e-05 3.2685150472451518e-06 -7.4568655284965729e-05 -8.6394338827247563e-05 -2.0171024826334816e-06 8.4834212881693713e-05 1.0194494907562492e-04 8.9724707068604686e-05 9.0926666002274614e-05 9.0055781540134602e-05 8.1223011650871841e-05 -1.0136233734258510e-05 -8.1742597046980531e-05 -7.7165890831003281e-05 5.7234811877103497e-06 8.4852379023938706e-05 8.9601197280500988e-05 8.4124872446869668e-05 4.5503492384875536e-05 4.8092890673275706e-05 4.8164629937168897e-05 1.6427775894573698e-05 -4.5370177226087410e-06 1.9084782507030468e-06 2.4705272645228309e-05 4.1149280758671501e-05 4.2407768312043384e-05 5.6712542511898572e-05 1.7278036209596847e-05 -3.7482816952164613e-06 6.4652341700211898e-06 4.5315849795803261e-05 7.9592025158373614e-05 8.8955994918068874e-05 3.8331941445171776e-05 1.1136249718658488e-05 6.4074498789214301e-06 1.4394452282533838e-05 -2.7460406987678799e-06 -1.1657881156298647e-05 1.1078233502052246e-05 4.2727524122678146e-05 9.4600232432382717e-05 1.0402922496630768e-04 4.3356726923717763e-05 9.1364021794992597e-07 -1.2714791633701426e-05 -3.0674296230533309e-06 -3.4820391628440677e-06 6.2164845059357712e-06 2.7202422075789251e-06 5.7958763077342785e-05 9.8604639802882135e-05 9.1646798692138383e-05 5.6234614150175869e-05 7.7016387356885672e-06 4.2177527651830160e-07 3.8670415615666903e-06 
</DataArray>
</PointData>
<CellData></CellData>
<Points>
<DataArray type="Float64" Name="Points" NumberOfComponents="3" format="ascii">
-0.818182 -0.818182 0.000000 -0.818182 -0.636364 0.000000 -0.818182 -0.454545 0.000000 -0.818182 -0.272727 0.000000 -0.818182 -0.090909 0.000000 -0.818182 0.090909 0.000000 -0.818182 0.272727 0.000000 -0.818182 0.454545 0.000000 -0.818182 0.636364 0.000000 -0.818182 0.818182 0.000000 -0.636364 -0.818182 0.000000 -0.636364 -0.636364 0.000000 -0.636364 -0.454545 0.000000 -0.636364 -0.272727 0.000000 -0.636364 -0.090909 0.000000 -0.636364 0.090909 0.000000 -0.636364 0.272727 0.000000 -0.636364 0.454545 0.000000 -0.636364 0.636364 0.000000 -0.636364 0.818182 0.000000 -0.454545 -0.818182 0.000000 -0.454545 -0.636364 0.000000 -0.454545 -0.454545 0.000000 -0.454545 -0.272727 0.000000 -0.454545 -0.090909 0.000000 -0.454545 0.090909 0.000000 -0.454545 0.272727 0.000000 -0.454545 0.454545 0.000000 -0.454545 0.636364 0.000000 -0.454545 0.818182 0.000000 -0.272727 -0.818182 0.000000 -0.272727 -0.636364 0.000000 -0.272727 -0.454545 0.000000 -0.272727 -0.272727 0.000000 -0.272727 -0.090909 0.000000 -0.272727 0.090909 0.000000 -0.272727 0.272727 0.000000 -0.272727 0.454545 0.000000 -0.272727 0.636364 0.000000 -0.272727 0.818182 0.000000 -0.090909 -0.818182 0.000000 -0.090909 -0.636364 0.000000 -0.090909 -0.454545 0.000000 -0.090909 -0.272727 0.000000 -0.090909 -0.090909 0.000000 -0.090909 0.090909 0.000000 -0.090909 0.272727 0.000000 -0.090909 0.454545 0.000000 -0.090909 0.636364 0.000000 -0.090909 0.818182 0.000000 0.090909 -0.818182 0.000000 0.090909 -0.636364 0.000000 0.090909 -0.454545 0.000000 0.090909 -0.272727 0.000000 0.090909 -0.090909 0.000000 0.090909 0.090909 0.000000 0.090909 0.272727 0.000000 0.090909 0.454545 0.000000 0.090909 0.636364 0.000000 0.090909 0.818182 0.000000 0.272727 -0.818182 0.000000 0.272727 -0.636364 0.000000 0.272727 -0.454545 0.000000 0.272727 -0.272727 0.000000 0.272727 -0.090909 0.000000 0.272727 0.090909 0.000000 0.272727 0.272727 0.000000 0.272727 0.454545 0.000000 0.272727 0.636364 0.000000 0.272727 0.818182 0.000000 0.454545 -0.818182 0.000000 0.454545 -0.636364 0.000000 0.454545 -0.454545 0.000000 0.454545 -0.272727 0.000000 0.454545 -0.090909 0.000000 0.454545 0.090909 0.000000 0.454545 0.272727 0.000000 0.454545 0.454545 0.000000 0.454545 0.636364 0.000000 0.454545 0.818182 0.000000 0.636364 -0.818182 0.000000 0.636364 -0.636364 0.000000 0.636364 -0.454545 0.000000 0.636364 -0.272727 0.000000 0.636364 -0.090909 0.000000 0.636364 0.090909 0.000000 0.636364 0.272727 0.000000 0.636364 0.454545 0.000000 0.636364 0.636364 0.000000 0.636364 0.818182 0.000000 0.818182 -0.818182 0.000000 0.818182 -0.636364 0.000000 0.818182 -0.454545 0.000000 0.818182 -0.272727 0.000000 0.818182 -0.090909 0.000000 0.818182 0.090909 0.000000 0.818182 0.272727 0.000000 0.818182 0.454545 0.000000 0.818182 0.636364 0.000000 0.818182 0.818182 0.000000 
</DataArray>
</Points>
</Piece>
</StructuredGrid>
</VTKFile>
