<VTKFile type="StructuredGrid" version="1.0" byte_order="LittleEndian" header_type="UInt64">
<StructuredGrid WholeExtent="0 9 0 9 0 0">
<Piece Extent="0 9 0 9 0 0">
<PointData Scalars="residual">
<DataArray type="Float64" Name="residual" format="ascii">
-1.0259413313152242e-05 1.4614482745731443e-05 1.3223352122920589e-05 -1.0515360400901617e-05 -3.0963363879677429e-05 -1.9044240556379249e-05 -1.0389777304594359e-05 9.3069228508370306e-06 2.2396124392080885e-06 -4.5004878322808112e-06 1.5489982273854310e-05 -6.4499805875913886e-05 -9.3645127611489791e-05 -1.4692326025903500e-05 4.8089548639607127e-05 5.2515881215865409e-05 -1.7326462938752236e-05 -7.3470523099025860e-05 -4.5408635797779154e-05 2.8756485925501667e-06 9.5046477405018835e-06 -7.8703768678774558e-05 -1.2389419648197765e-04 -1.8377726123386222e-05 9.9238903318801461e-05 8.4514833304388109e-05 -2.0442111899039370e-05 -1.3396249635173624e-04 -9.0624257580477000e-05 2.1741617924460224e-05 -9.1870699681780802e-06 -1.6663397252018701e-05 -2.7010753415821105e-05 -1.6739889973473379e-06 1.6598967164215515e-05 1.9095544544441012e-05 5.7627447549680674e-06 -2.5749202732561899e-05 -1.0006392831676814e-05 -1.4965637927323193e-05 -2.3629734554598408e-05 4.4697054143096049e-05 9.4714511234489721e-05 2.4526231572505504e-05 -4.2763778780635598e-05 -4.8812059822034553e-05 2.6969355442275390e-05 9.3782068994529427e-05 5.4179383149948954e-05 -2.7061872960072167e-05 -2.8317178732290829e-05 4.7940685304793604e-05 8.7454611694411100e-05 2.2498951474636195e-05 -5.2914820500666150e-05 -4.2540438017414856e-05 1.5485992028772474e-05 8.4512449875855447e-05 5.0836623452104462e-05 -2.7097881843636323e-05 -6.1309996667158586e-06 -1.9428988453923900e-05 -1.5840233860473993e-05 8.8221079080734455e-07 2.6138036968344387e-05 1.7706721593914974e-05 -2.8757107934478110e-06 -1.8600147369220686e-05 -2.3601141786676848e-05 -8.5217678082007489e-06 1.6923912907891277e-05 -7.8547580768750791e-05 -1.3334749057203679e-04 -1.2312303783897777e-05 9.0677072986050308e-05 9.5752738269372015e-05 -1.4673930978975104e-05 -1.2173965201990340e-04 -9.4025999460843699e-05 1.2388220941920471e-05 1.6663338628917536e-06 -6.0111965664122024e-05 -8.5204852757877949e-05 -1.1837514341822390e-05 4.5005780730438504e-05 4.9026364520401468e-05 -2.5005502340131984e-05 -7.6558911286127296e-05 -5.5823202190643660e-05 1.2886846926801841e-05 -3.0566770998045889e-06 6.2613477212862534e-06 1.2804118628422022e-05 -6.9387025246700094e-06 -2.3068736837922928e-05 -3.5545076479534402e-05 -1.6143237523255551e-07 1.8815306392045783e-05 1.8586680813532409e-06 -1.0634688572454080e-05 
</DataArray>
</PointData>
<CellData></CellData>
<Points>
<DataArray type="Float64" Name="Points" NumberOfComponents="3" format="ascii">
-0.818182 -0.818182 0.000000 -0.818182 -0.636364 0.000000 -0.818182 -0.454545 0.000000 -0.818182 -0.272727 0.000000 -0.818182 -0.090909 0.000000 -0.818182 0.090909 0.000000 -0.818182 0.272727 0.000000 -0.818182 0.454545 0.000000 -0.818182 0.636364 0.000000 -0.818182 0.818182 0.000000 -0.636364 -0.818182 0.000000 -0.636364 -0.636364 0.000000 -0.636364 -0.454545 0.000000 -0.636364 -0.272727 0.000000 -0.636364 -0.090909 0.000000 -0.636364 0.090909 0.000000 -0.636364 0.272727 0.000000 -0.636364 0.454545 0.000000 -0.636364 0.636364 0.000000 -0.636364 0.818182 0.000000 -0.454545 -0.818182 0.000000 -0.454545 -0.636364 0.000000 -0.454545 -0.454545 0.000000 -0.454545 -0.272727 0.000000 -0.454545 -0.090909 0.000000 -0.454545 0.090909 0.000000 -0.454545 0.272727 0.000000 -0.454545 0.454545 0.000000 -0.454545 0.636364 0.000000 -0.454545 0.818182 0.000000 -0.272727 -0.818182 0.000000 -0.272727 -0.636364 0.000000 -0.272727 -0.454545 0.000000 -0.272727 -0.272727 0.000000 -0.272727 -0.090909 0.000000 -0.272727 0.090909 0.000000 -0.272727 0.272727 0.000000 -0.272727 0.454545 0.000000 -0.272727 0.636364 0.000000 -0.272727 0.818182 0.000000 -0.090909 -0.818182 0.000000 -0.090909 -0.636364 0.000000 -0.090909 -0.454545 0.000000 -0.090909 -0.272727 0.000000 -0.090909 -0.090909 0.000000 -0.090909 0.090909 0.000000 -0.090909 0.272727 0.000000 -0.090909 0.454545 0.000000 -0.090909 0.636364 0.000000 -0.090909 0.818182 0.000000 0.090909 -0.818182 0.000000 0.090909 -0.636364 0.000000 0.090909 -0.454545 0.000000 0.090909 -0.272727 0.000000 0.090909 -0.090909 0.000000 0.090909 0.090909 0.000000 0.090909 0.272727 0.000000 0.090909 0.454545 0.000000 0.090909 0.636364 0.000000 0.090909 0.818182 0.000000 0.272727 -0.818182 0.000000 0.272727 -0.636364 0.000000 0.272727 -0.454545 0.000000 0.272727 -0.272727 0.000000 0.272727 -0.090909 0.000000 0.272727 0.090909 0.000000 0.272727 0.272727 0.000000 0.272727 0.454545 0.000000 0.272727 0.636364 0.000000 0.272727 0.818182 0.000000 0.454545 -0.818182 0.000000 0.454545 -0.636364 0.000000 0.454545 -0.454545 0.000000 0.454545 -0.272727 0.000000 0.454545 -0.090909 0.000000 0.454545 0.090909 0.000000 0.454545 0.272727 0.000000 0.454545 0.454545 0.000000 0.454545 0.636364 0.000000 0.454545 0.818182 0.000000 0.636364 -0.818182 0.000000 0.636364 -0.636364 0.000000 0.636364 -0.454545 0.000000 0.636364 -0.272727 0.000000 0.636364 -0.090909 0.000000 0.636364 0.090909 0.000000 0.636364 0.272727 0.000000 0.636364 0.454545 0.000000 0.636364 0.636364 0.000000 0.636364 0.818182 0.000000 0.818182 -0.818182 0.000000 0.818182 -0.636364 0.000000 0.818182 -0.454545 0.000000 0.818182 -0.272727 0.000000 0.818182 -0.090909 0.000000 0.818182 0.090909 0.000000 0.818182 0.272727 0.000000 0.818182 0.454545 0.000000 0.818182 0.636364 0.000000 0.818182 0.818182 0.000000 
</DataArray>
</Points>
</Piece>
</StructuredGrid>
</VTKFile>
