<VTKFile type="StructuredGrid" version="1.0" byte_order="LittleEndian" header_type="UInt64">
<StructuredGrid WholeExtent="0 9 0 9 0 0">
<Piece Extent="0 9 0 9 0 0">
<PointData Scalars="residual">
<DataArray type="Float64" Name="residual" format="ascii">
-1.3952031509064343e-04 -1.6886394972818151e-05 6.6267703948929592e-05 -3.9061646318217652e-06 -4.8424697138949035e-05 -6.3823235552524712e-05 1.4076426411219721e-05 6.7462407115740329e-05 -2.0263920525163438e-05 -1.3874751569210083e-04 -1.6468092122643233e-05 -4.1471870814347236e-05 -4.9292096390714246e-05 -3.9009172817434414e-05 -1.3665714857899816e-05 -1.8772666774556808e-05 -3.7398232308072203e-05 -5.5908751208805577e-05 -5.1987725900489758e-05 -2.0658870439443401e-05 6.6427768461376976e-05 -6.4569351799476267e-05 -1.3897369641473027e-04 -6.2921528944040548e-05 1.1932801895035705e-05 1.3441237876983189e-06 -6.8548545552241276e-05 -1.2511875305529999e-04 -4.9070511223608601e-05 7.0313810620495007e-05 5.5982284776889130e-06 -3.3178567404991942e-05 -6.2231806834842692e-05 -3.1190747110792019e-05 2.4533056085483673e-06 3.2290402107596275e-06 -2.2045592095564469e-05 -6.9825797829213207e-05 -3.4598205728949769e-05 3.3104829420278065e-06 -6.1248710234953173e-05 -2.2927407783224565e-05 4.2043503721417297e-06 3.4540422498606851e-06 6.2431935764746885e-06 4.3337108875957792e-06 -5.0343842665848126e-06 4.8544656523815538e-06 -1.8468635211245366e-05 -5.7832752624286526e-05 -5.8145155687029139e-05 -1.9103675918005943e-05 -6.2551493714476519e-07 1.0840536569320033e-05 1.2213846149166860e-05 1.2881438724913347e-05 2.4701141224372711e-06 1.8666411445451142e-06 -1.7375385461143068e-05 -5.9550904524910062e-05 9.8881377829356659e-06 -3.4863239695673461e-05 -5.7314474737173333e-05 -3.5110636390879753e-05 7.3352600880151678e-06 8.3244902119739700e-06 -2.4499524636486039e-05 -5.6165768779356529e-05 -4.1330630590811351e-05 1.1644151166911344e-05 6.8345629592680979e-05 -5.6006969190334696e-05 -1.3222643674727988e-04 -5.9693965072782091e-05 1.5519789944790433e-06 7.6890405033584394e-06 -6.7921108358625758e-05 -1.3517885757733132e-04 -5.3303603511646244e-05 6.4721971984122752e-05 -2.1812590918587026e-05 -4.4904106147705333e-05 -6.3687433700261240e-05 -3.7969715300983919e-05 -1.7580496882317088e-05 -2.6119597812560534e-05 -4.4680535962012685e-05 -5.5578748343622884e-05 -4.7275500447215187e-05 -1.9948997858313007e-05 -1.3758721020255479e-04 -1.1132656812282149e-05 6.3457106222852833e-05 9.1193578663313277e-06 -5.4642122849223561e-05 -4.7090943804863755e-05 2.9041807003520048e-08 6.5599615538130401e-05 -7.5531020710742358e-06 -1.4491367479421008e-04 
</DataArray>
</PointData>
<CellData></CellData>
<Points>
<DataArray type="Float64" Name="Points" NumberOfComponents="3" format="ascii">
-0.818182 -0.818182 0.000000 -0.818182 -0.636364 0.000000 -0.818182 -0.454545 0.000000 -0.818182 -0.272727 0.000000 -0.818182 -0.090909 0.000000 -0.818182 0.090909 0.000000 -0.818182 0.272727 0.000000 -0.818182 0.454545 0.000000 -0.818182 0.636364 0.000000 -0.818182 0.818182 0.000000 -0.636364 -0.818182 0.000000 -0.636364 -0.636364 0.000000 -0.636364 -0.454545 0.000000 -0.636364 -0.272727 0.000000 -0.636364 -0.090909 0.000000 -0.636364 0.090909 0.000000 -0.636364 0.272727 0.000000 -0.636364 0.454545 0.000000 -0.636364 0.636364 0.000000 -0.636364 0.818182 0.000000 -0.454545 -0.818182 0.000000 -0.454545 -0.636364 0.000000 -0.454545 -0.454545 0.000000 -0.454545 -0.272727 0.000000 -0.454545 -0.090909 0.000000 -0.454545 0.090909 0.000000 -0.454545 0.272727 0.000000 -0.454545 0.454545 0.000000 -0.454545 0.636364 0.000000 -0.454545 0.818182 0.000000 -0.272727 -0.818182 0.000000 -0.272727 -0.636364 0.000000 -0.272727 -0.454545 0.000000 -0.272727 -0.272727 0.000000 -0.272727 -0.090909 0.000000 -0.272727 0.090909 0.000000 -0.272727 0.272727 0.000000 -0.272727 0.454545 0.000000 -0.272727 0.636364 0.000000 -0.272727 0.818182 0.000000 -0.090909 -0.818182 0.000000 -0.090909 -0.636364 0.000000 -0.090909 -0.454545 0.000000 -0.090909 -0.272727 0.000000 -0.090909 -0.090909 0.000000 -0.090909 0.090909 0.000000 -0.090909 0.272727 0.000000 -0.090909 0.454545 0.000000 -0.090909 0.636364 0.000000 -0.090909 0.818182 0.000000 0.090909 -0.818182 0.000000 0.090909 -0.636364 0.000000 0.090909 -0.454545 0.000000 0.090909 -0.272727 0.000000 0.090909 -0.090909 0.000000 0.090909 0.090909 0.000000 0.090909 0.272727 0.000000 0.090909 0.454545 0.000000 0.090909 0.636364 0.000000 0.090909 0.818182 0.000000 0.272727 -0.818182 0.000000 0.272727 -0.636364 0.000000 0.272727 -0.454545 0.000000 0.272727 -0.272727 0.000000 0.272727 -0.090909 0.000000 0.272727 0.090909 0.000000 0.272727 0.272727 0.000000 0.272727 0.454545 0.000000 0.272727 0.636364 0.000000 0.272727 0.818182 0.000000 0.454545 -0.818182 0.000000 0.454545 -0.636364 0.000000 0.454545 -0.454545 0.000000 0.454545 -0.272727 0.000000 0.454545 -0.090909 0.000000 0.454545 0.090909 0.000000 0.454545 0.272727 0.000000 0.454545 0.454545 0.000000 0.454545 0.636364 0.000000 0.454545 0.818182 0.000000 0.636364 -0.818182 0.000000 0.636364 -0.636364 0.000000 0.636364 -0.454545 0.000000 0.636364 -0.272727 0.000000 0.636364 -0.090909 0.000000 0.636364 0.090909 0.000000 0.636364 0.272727 0.000000 0.636364 0.454545 0.000000 0.636364 0.636364 0.000000 0.636364 0.818182 0.000000 0.818182 -0.818182 0.000000 0.818182 -0.636364 0.000000 0.818182 -0.454545 0.000000 0.818182 -0.272727 0.000000 0.818182 -0.090909 0.000000 0.818182 0.090909 0.000000 0.818182 0.272727 0.000000 0.818182 0.454545 0.000000 0.818182 0.636364 0.000000 0.818182 0.818182 0.000000 
</DataArray>
</Points>
</Piece>
</StructuredGrid>
</VTKFile>
