<VTKFile type="StructuredGrid" version="1.0" byte_order="LittleEndian" header_type="UInt64">
<StructuredGrid WholeExtent="0 9 0 9 0 0">
<Piece Extent="0 9 0 9 0 0">
<PointData Scalars="residual">
<DataArray type="Float64" Name="residual" format="ascii">
5.6296070997926672e-05 -5.0837756801396482e-05 -9.3822313104620705e-05 2.7819937490833335e-09 1.0942435068990800e-04 1.0699346211356800e-04 7.3494163794784496e-06 -1.0263329508742539e-04 -3.7558536765632845e-05 4.4711138130503359e-05 -5.1198583827420999e-05 -3.0930388709652333e-05 -2.2828866470933976e-05 -1.1427257128386343e-05 -6.3764748463707686e-06 -3.6503941922786526e-07 -1.0496289914569811e-05 -2.0167597335684143e-05 -4.1883552601087656e-05 -5.2003115508608005e-05 -9.7352040553585865e-05 -2.0865114701486276e-05 1.4593388589881004e-05 -2.5752672554755357e-05 -4.5013194160171445e-05 -5.2551031397054301e-05 -1.9369998761327965e-05 2.3842905021132302e-05 -2.4327044190584554e-05 -8.5817864112176963e-05 1.6808073903611630e-06 -1.2665316373901715e-05 -7.9839434703522262e-06 6.7955079437092072e-06 4.6259715290297796e-05 3.3453414534115496e-05 1.6743435595117321e-05 -1.4137031923275225e-05 -1.1039155029327063e-05 -1.2493671680199880e-06 1.1146129427433557e-04 -2.3380290709151125e-06 -4.8896227054249630e-05 4.0772131258187596e-05 1.2296779306903002e-04 1.2933183571152114e-04 3.2600157915240596e-05 -5.3519534208083287e-05 -4.3696443629646226e-06 1.1392544189772194e-04 1.0175322202534602e-04 -2.3760360125229391e-06 -5.8423601053412058e-05 3.9811391409460238e-05 1.1988921167066079e-04 1.2158171981182858e-04 3.9540683480692417e-05 -5.5314026069068663e-05 5.6007591661354737e-06 9.3303429285822477e-05 -2.3773622208830836e-06 -4.2077892068227186e-06 -2.6693885807888788e-05 5.0901374575853739e-07 4.5289887605151277e-05 3.1863551964190964e-05 6.6562190720251269e-06 -1.9450680704798801e-05 -9.6755406072939615e-06 9.9016879149304085e-06 -9.2944132404479060e-05 -1.8920042917562260e-05 1.9811424527802456e-05 -1.1116836174439402e-05 -5.9000685452601388e-05 -5.0320484351557525e-05 -1.1506263292185466e-05 2.4446632333989006e-05 -3.1589232132802833e-05 -8.9991953784982620e-05 -3.9360414488136958e-05 -4.3373479329489491e-05 -2.0057531715861852e-05 -9.2095435190679004e-06 -8.1259101182957170e-06 4.6028589482938198e-06 -2.0701006244081346e-05 -2.4836645788298140e-05 -4.0807376591686130e-05 -4.5747184637241756e-05 4.7969360654104808e-05 -4.5844125019065159e-05 -9.5731714628150867e-05 8.4294582815289468e-06 1.1133014416326702e-04 1.0293390281277803e-04 9.7909944925633589e-06 -8.9399380659569393e-05 -5.1533380865293604e-05 4.7429063490558171e-05 
</DataArray>
</PointData>
<CellData></CellData>
<Points>
<DataArray type="Float64" Name="Points" NumberOfComponents="3" format="ascii">
-0.818182 -0.818182 0.000000 -0.818182 -0.636364 0.000000 -0.818182 -0.454545 0.000000 -0.818182 -0.272727 0.000000 -0.818182 -0.090909 0.000000 -0.818182 0.090909 0.000000 -0.818182 0.272727 0.000000 -0.818182 0.454545 0.000000 -0.818182 0.636364 0.000000 -0.818182 0.818182 0.000000 -0.636364 -0.818182 0.000000 -0.636364 -0.636364 0.000000 -0.636364 -0.454545 0.000000 -0.636364 -0.272727 0.000000 -0.636364 -0.090909 0.000000 -0.636364 0.090909 0.000000 -0.636364 0.272727 0.000000 -0.636364 0.454545 0.000000 -0.636364 0.636364 0.000000 -0.636364 0.818182 0.000000 -0.454545 -0.818182 0.000000 -0.454545 -0.636364 0.000000 -0.454545 -0.454545 0.000000 -0.454545 -0.272727 0.000000 -0.454545 -0.090909 0.000000 -0.454545 0.090909 0.000000 -0.454545 0.272727 0.000000 -0.454545 0.454545 0.000000 -0.454545 0.636364 0.000000 -0.454545 0.818182 0.000000 -0.272727 -0.818182 0.000000 -0.272727 -0.636364 0.000000 -0.272727 -0.454545 0.000000 -0.272727 -0.272727 0.000000 -0.272727 -0.090909 0.000000 -0.272727 0.090909 0.000000 -0.272727 0.272727 0.000000 -0.272727 0.454545 0.000000 -0.272727 0.636364 0.000000 -0.272727 0.818182 0.000000 -0.090909 -0.818182 0.000000 -0.090909 -0.636364 0.000000 -0.090909 -0.454545 0.000000 -0.090909 -0.272727 0.000000 -0.090909 -0.090909 0.000000 -0.090909 0.090909 0.000000 -0.090909 0.272727 0.000000 -0.090909 0.454545 0.000000 -0.090909 0.636364 0.000000 -0.090909 0.818182 0.000000 0.090909 -0.818182 0.000000 0.090909 -0.636364 0.000000 0.090909 -0.454545 0.000000 0.090909 -0.272727 0.000000 0.090909 -0.090909 0.000000 0.090909 0.090909 0.000000 0.090909 0.272727 0.000000 0.090909 0.454545 0.000000 0.090909 0.636364 0.000000 0.090909 0.818182 0.000000 0.272727 -0.818182 0.000000 0.272727 -0.636364 0.000000 0.272727 -0.454545 0.000000 0.272727 -0.272727 0.000000 0.272727 -0.090909 0.000000 0.272727 0.090909 0.000000 0.272727 0.272727 0.000000 0.272727 0.454545 0.000000 0.272727 0.636364 0.000000 0.272727 0.818182 0.000000 0.454545 -0.818182 0.000000 0.454545 -0.636364 0.000000 0.454545 -0.454545 0.000000 0.454545 -0.272727 0.000000 0.454545 -0.090909 0.000000 0.454545 0.090909 0.000000 0.454545 0.272727 0.000000 0.454545 0.454545 0.000000 0.454545 0.636364 0.000000 0.454545 0.818182 0.000000 0.636364 -0.818182 0.000000 0.636364 -0.636364 0.000000 0.636364 -0.454545 0.000000 0.636364 -0.272727 0.000000 0.636364 -0.090909 0.000000 0.636364 0.090909 0.000000 0.636364 0.272727 0.000000 0.636364 0.454545 0.000000 0.636364 0.636364 0.000000 0.636364 0.818182 0.000000 0.818182 -0.818182 0.000000 0.818182 -0.636364 0.000000 0.818182 -0.454545 0.000000 0.818182 -0.272727 0.000000 0.818182 -0.090909 0.000000 0.818182 0.090909 0.000000 0.818182 0.272727 0.000000 0.818182 0.454545 0.000000 0.818182 0.636364 0.000000 0.818182 0.818182 0.000000 
</DataArray>
</Points>
</Piece>
</StructuredGrid>
</VTKFile>
