<VTKFile type="StructuredGrid" version="1.0" byte_order="LittleEndian" header_type="UInt64">
<StructuredGrid WholeExtent="0 9 0 9 0 0">
<Piece Extent="0 9 0 9 0 0">
<PointData Scalars="residual">
<DataArray type="Float64" Name="residual" format="ascii">
-1.8422995528559645e-04 2.8023187349032405e-05 1.4907672352107437e-04 3.6963145569527886e-05 -7.8167612781857021e-05 -8.1101076911780853e-05 4.8290579257558031e-05 1.5028304915029080e-04 2.3447241088979734e-05 -1.8445412713028343e-04 2.2166476298437002e-05 4.9787931100464880e-05 5.5494447998715932e-05 4.0481870346022880e-05 6.9902927283338814e-06 2.3248050660265931e-06 4.4054053255911801e-05 5.3500151272362420e-05 4.2687715818280972e-05 2.6990585423575242e-05 1.5550519442985092e-04 6.2087502656385865e-05 -6.5367755103361985e-06 2.1110695339121750e-05 5.5842269469822282e-05 4.5789675253672061e-05 3.4831655911947944e-05 5.3012695089109385e-06 5.6718113817669571e-05 1.5279996436228481e-04 4.3449079170788940e-05 3.7949822423586493e-05 2.7081248156724316e-05 2.0502864193737338e-05 7.5113586898989393e-07 7.2264336887740629e-06 1.0383526442917673e-05 2.5874709905236541e-05 3.7746649708195190e-05 4.6315524210568948e-05 -7.0250248903502843e-05 -3.9849297273639520e-06 6.0467945377164819e-05 2.3348101314303593e-06 -3.5372339261348709e-05 -3.5640718202991847e-05 1.1191359194496868e-05 4.6657727633154546e-05 1.1840430540113051e-06 -7.1883694377163423e-05 -8.0710221433490797e-05 -8.0415351414245273e-08 4.8989226927824338e-05 4.5808569624182505e-07 -3.8070861720996066e-05 -3.2360274646155152e-05 9.7163945457614045e-06 4.6383015003526300e-05 1.1357504417681269e-05 -8.3131019207720661e-05 4.0141529201160805e-05 2.6934866740895361e-05 3.8599950850187921e-05 1.3588894253274979e-05 9.4779793331596293e-06 -2.1201825032022073e-06 2.4562261775102679e-05 2.2656652871426430e-05 2.7657109188663695e-05 3.4621004167671721e-05 1.4994260859110473e-04 6.3227082517809327e-05 -5.3656439127046374e-07 2.8262536891257399e-05 5.5722287745888551e-05 5.3817423601062921e-05 3.3050322731966765e-05 -3.6250566513573723e-06 6.2238382146355409e-05 1.5186089382127413e-04 2.6456390903631735e-05 4.8962518101760763e-05 5.8504421043098845e-05 3.3268151625997708e-05 8.5266885872401985e-06 4.8795725205086002e-06 2.8457453077385467e-05 6.0016621986919844e-05 5.6577620900137224e-05 1.7590134271968164e-05 -1.8102378702255801e-04 1.9875774176374844e-05 1.4729640054428686e-04 4.6205283352912865e-05 -7.7550834638780847e-05 -8.3022974475302838e-05 3.6461034822141483e-05 1.5914228084769506e-04 2.1582589771787855e-05 -1.8140254225745833e-04 
</DataArray>
</PointData>
<CellData></CellData>
<Points>
<DataArray type="Float64" Name="Points" NumberOfComponents="3" format="ascii">
-0.818182 -0.818182 0.000000 -0.818182 -0.636364 0.000000 -0.818182 -0.454545 0.000000 -0.818182 -0.272727 0.000000 -0.818182 -0.090909 0.000000 -0.818182 0.090909 0.000000 -0.818182 0.272727 0.000000 -0.818182 0.454545 0.000000 -0.818182 0.636364 0.000000 -0.818182 0.818182 0.000000 -0.636364 -0.818182 0.000000 -0.636364 -0.636364 0.000000 -0.636364 -0.454545 0.000000 -0.636364 -0.272727 0.000000 -0.636364 -0.090909 0.000000 -0.636364 0.090909 0.000000 -0.636364 0.272727 0.000000 -0.636364 0.454545 0.000000 -0.636364 0.636364 0.000000 -0.636364 0.818182 0.000000 -0.454545 -0.818182 0.000000 -0.454545 -0.636364 0.000000 -0.454545 -0.454545 0.000000 -0.454545 -0.272727 0.000000 -0.454545 -0.090909 0.000000 -0.454545 0.090909 0.000000 -0.454545 0.272727 0.000000 -0.454545 0.454545 0.000000 -0.454545 0.636364 0.000000 -0.454545 0.818182 0.000000 -0.272727 -0.818182 0.000000 -0.272727 -0.636364 0.000000 -0.272727 -0.454545 0.000000 -0.272727 -0.272727 0.000000 -0.272727 -0.090909 0.000000 -0.272727 0.090909 0.000000 -0.272727 0.272727 0.000000 -0.272727 0.454545 0.000000 -0.272727 0.636364 0.000000 -0.272727 0.818182 0.000000 -0.090909 -0.818182 0.000000 -0.090909 -0.636364 0.000000 -0.090909 -0.454545 0.000000 -0.090909 -0.272727 0.000000 -0.090909 -0.090909 0.000000 -0.090909 0.090909 0.000000 -0.090909 0.272727 0.000000 -0.090909 0.454545 0.000000 -0.090909 0.636364 0.000000 -0.090909 0.818182 0.000000 0.090909 -0.818182 0.000000 0.090909 -0.636364 0.000000 0.090909 -0.454545 0.000000 0.090909 -0.272727 0.000000 0.090909 -0.090909 0.000000 0.090909 0.090909 0.000000 0.090909 0.272727 0.000000 0.090909 0.454545 0.000000 0.090909 0.636364 0.000000 0.090909 0.818182 0.000000 0.272727 -0.818182 0.000000 0.272727 -0.636364 0.000000 0.272727 -0.454545 0.000000 0.272727 -0.272727 0.000000 0.272727 -0.090909 0.000000 0.272727 0.090909 0.000000 0.272727 0.272727 0.000000 0.272727 0.454545 0.000000 0.272727 0.636364 0.000000 0.272727 0.818182 0.000000 0.454545 -0.818182 0.000000 0.454545 -0.636364 0.000000 0.454545 -0.454545 0.000000 0.454545 -0.272727 0.000000 0.454545 -0.090909 0.000000 0.454545 0.090909 0.000000 0.454545 0.272727 0.000000 0.454545 0.454545 0.000000 0.454545 0.636364 0.000000 0.454545 0.818182 0.000000 0.636364 -0.818182 0.000000 0.636364 -0.636364 0.000000 0.636364 -0.454545 0.000000 0.636364 -0.272727 0.000000 0.636364 -0.090909 0.000000 0.636364 0.090909 0.000000 0.636364 0.272727 0.000000 0.636364 0.454545 0.000000 0.636364 0.636364 0.000000 0.636364 0.818182 0.000000 0.818182 -0.818182 0.000000 0.818182 -0.636364 0.000000 0.818182 -0.454545 0.000000 0.818182 -0.272727 0.000000 0.818182 -0.090909 0.000000 0.818182 0.090909 0.000000 0.818182 0.272727 0.000000 0.818182 0.454545 0.000000 0.818182 0.636364 0.000000 0.818182 0.818182 0.000000 
</DataArray>
</Points>
</Piece>
</StructuredGrid>
</VTKFile>
