<VTKFile type="StructuredGrid" version="1.0" byte_order="LittleEndian" header_type="UInt64">
<StructuredGrid WholeExtent="0 9 0 9 0 0">
<Piece Extent="0 9 0 9 0 0">
<PointData Scalars="residual">
<DataArray type="Float64" Name="residual" format="ascii">
2.8994132648286000e-04 6.2206327020596346e-05 -7.7862160155360051e-05 1.0666145807350022e-05 9.7284980513507625e-05 9.0108160031241065e-05 1.1739046187770816e-05 -8.6149416660237337e-05 7.2150301685027212e-05 2.8471666306355585e-04 7.4215978356639931e-05 -5.8236042170790002e-06 -4.6520947336192112e-05 -3.6426203276787323e-05 -2.8683296052527867e-05 -2.9450761681653985e-05 -3.1785940146289047e-05 -4.4690139617845070e-05 4.4412098410473097e-07 7.1194995241608862e-05 -8.6794568284431946e-05 -4.4602049254286336e-05 -3.2745104627019761e-05 -5.4864827448464736e-05 -9.7298446791640146e-05 -1.0338228733283456e-04 -5.7873341279243316e-05 -3.5041121846970643e-05 -4.4438458362307687e-05 -7.9759566942143832e-05 1.7373503135628861e-05 -4.3720846665879030e-05 -7.0736501343407173e-05 -3.0310760454321448e-05 1.4583403675483969e-05 -4.5452805415117925e-07 -3.4437052271814490e-05 -6.0921078544692257e-05 -3.5371416148561544e-05 5.4700240917941387e-06 9.8154869358100302e-05 -3.6267919016490604e-05 -8.7622483144359463e-05 5.3051258827058884e-06 1.1809225996945241e-04 1.0917190511504707e-04 6.3404093703887943e-06 -9.5287307273863794e-05 -2.4109612868330489e-05 9.3078626605918539e-05 9.3481151813511274e-05 -3.6218233439754748e-05 -9.4172251038417490e-05 3.9271562635532359e-06 1.1461195277352038e-04 1.2064990922958790e-04 7.2089084785960378e-06 -1.0324366427216271e-04 -2.4073158091321634e-05 9.7794981450826431e-05 9.7006450946535497e-06 -4.3151813274611888e-05 -5.9472916696027330e-05 -2.1640541443291098e-05 3.6964338721197365e-06 4.1304481604130527e-06 -2.3714420202589938e-05 -6.8986280763198328e-05 -4.1481981989792980e-05 -2.5176077108153214e-06 -7.4386816555840375e-05 -4.5054759994522710e-05 -3.2093096555052764e-05 -6.5259538203530807e-05 -9.5132388501648762e-05 -9.7778071462994998e-05 -5.4191687041570211e-05 -3.7663725339880452e-05 -4.5456523460635657e-05 -7.6249321691124715e-05 6.0689158833743956e-05 9.5624929907496374e-06 -4.0971076486859704e-05 -4.5541196789341187e-05 -3.4068629680828312e-05 -2.8135544222256928e-05 -3.3335198505758711e-05 -4.0097632972432070e-05 2.0821291635123897e-06 6.5661473864415867e-05 2.9010283032252730e-04 6.3959531783712702e-05 -7.8223458468072195e-05 6.3746304432617945e-06 9.1096132332437255e-05 1.0421437942707877e-04 4.3920427806147522e-06 -8.1531349935046356e-05 7.1885576419147921e-05 2.8257141884543069e-04 
</DataArray>
</PointData>
<CellData></CellData>
<Points>
<DataArray type="Float64" Name="Points" NumberOfComponents="3" format="ascii">
-0.818182 -0.818182 0.000000 -0.818182 -0.636364 0.000000 -0.818182 -0.454545 0.000000 -0.818182 -0.272727 0.000000 -0.818182 -0.090909 0.000000 -0.818182 0.090909 0.000000 -0.818182 0.272727 0.000000 -0.818182 0.454545 0.000000 -0.818182 0.636364 0.000000 -0.818182 0.818182 0.000000 -0.636364 -0.818182 0.000000 -0.636364 -0.636364 0.000000 -0.636364 -0.454545 0.000000 -0.636364 -0.272727 0.000000 -0.636364 -0.090909 0.000000 -0.636364 0.090909 0.000000 -0.636364 0.272727 0.000000 -0.636364 0.454545 0.000000 -0.636364 0.636364 0.000000 -0.636364 0.818182 0.000000 -0.454545 -0.818182 0.000000 -0.454545 -0.636364 0.000000 -0.454545 -0.454545 0.000000 -0.454545 -0.272727 0.000000 -0.454545 -0.090909 0.000000 -0.454545 0.090909 0.000000 -0.454545 0.272727 0.000000 -0.454545 0.454545 0.000000 -0.454545 0.636364 0.000000 -0.454545 0.818182 0.000000 -0.272727 -0.818182 0.000000 -0.272727 -0.636364 0.000000 -0.272727 -0.454545 0.000000 -0.272727 -0.272727 0.000000 -0.272727 -0.090909 0.000000 -0.272727 0.090909 0.000000 -0.272727 0.272727 0.000000 -0.272727 0.454545 0.000000 -0.272727 0.636364 0.000000 -0.272727 0.818182 0.000000 -0.090909 -0.818182 0.000000 -0.090909 -0.636364 0.000000 -0.090909 -0.454545 0.000000 -0.090909 -0.272727 0.000000 -0.090909 -0.090909 0.000000 -0.090909 0.090909 0.000000 -0.090909 0.272727 0.000000 -0.090909 0.454545 0.000000 -0.090909 0.636364 0.000000 -0.090909 0.818182 0.000000 0.090909 -0.818182 0.000000 0.090909 -0.636364 0.000000 0.090909 -0.454545 0.000000 0.090909 -0.272727 0.000000 0.090909 -0.090909 0.000000 0.090909 0.090909 0.000000 0.090909 0.272727 0.000000 0.090909 0.454545 0.000000 0.090909 0.636364 0.000000 0.090909 0.818182 0.000000 0.272727 -0.818182 0.000000 0.272727 -0.636364 0.000000 0.272727 -0.454545 0.000000 0.272727 -0.272727 0.000000 0.272727 -0.090909 0.000000 0.272727 0.090909 0.000000 0.272727 0.272727 0.000000 0.272727 0.454545 0.000000 0.272727 0.636364 0.000000 0.272727 0.818182 0.000000 0.454545 -0.818182 0.000000 0.454545 -0.636364 0.000000 0.454545 -0.454545 0.000000 0.454545 -0.272727 0.000000 0.454545 -0.090909 0.000000 0.454545 0.090909 0.000000 0.454545 0.272727 0.000000 0.454545 0.454545 0.000000 0.454545 0.636364 0.000000 0.454545 0.818182 0.000000 0.636364 -0.818182 0.000000 0.636364 -0.636364 0.000000 0.636364 -0.454545 0.000000 0.636364 -0.272727 0.000000 0.636364 -0.090909 0.000000 0.636364 0.090909 0.000000 0.636364 0.272727 0.000000 0.636364 0.454545 0.000000 0.636364 0.636364 0.000000 0.636364 0.818182 0.000000 0.818182 -0.818182 0.000000 0.818182 -0.636364 0.000000 0.818182 -0.454545 0.000000 0.818182 -0.272727 0.000000 0.818182 -0.090909 0.000000 0.818182 0.090909 0.000000 0.818182 0.272727 0.000000 0.818182 0.454545 0.000000 0.818182 0.636364 0.000000 0.818182 0.818182 0.000000 
</DataArray>
</Points>
</Piece>
</StructuredGrid>
</VTKFile>
