<VTKFile type="StructuredGrid" version="1.0" byte_order="LittleEndian" header_type="UInt64">
<StructuredGrid WholeExtent="0 9 0 9 0 0">
<Piece Extent="0 9 0 9 0 0">
<PointData Scalars="residual">
<DataArray type="Float64" Name="residual" format="ascii">
-3.1097258634283590e-05 9.8305748162433836e-06 3.4807743831932227e-05 3.6542394625340736e-06 -1.8734671656044002e-05 -2.5236111719196706e-05 1.2958361329724801e-05 2.9073538057270299e-05 1.5357686820195900e-05 -2.8207564287427694e-05 1.4325834112819107e-05 -1.8305515156412898e-06 -1.3495157350245333e-05 -1.9367191882327470e-05 -4.1454937018624814e-06 2.7717882686846378e-06 -1.4681152252794469e-05 -2.2336967860122747e-05 -6.3352030323930893e-06 6.7287554110649801e-06 2.6895139983930134e-05 -2.0169889067706611e-05 -6.9016051925706225e-05 -1.6425604783723135e-05 2.3176966699640228e-05 2.3383222198089439e-05 -2.5002183798882027e-05 -5.3314374201685749e-05 -3.0405185104546550e-05 4.0730542840752490e-05 1.1370082267367961e-05 -7.4248194704791201e-06 -1.7691279492033484e-05 -4.6136542555404690e-06 1.4737817370805931e-05 1.4073461831508229e-05 -8.3494411440769405e-06 -1.5470488194039948e-05 -3.2717431215751290e-06 4.8981381327432329e-06 -2.3905962464500089e-05 -5.2094760859306040e-06 1.7509103368578208e-05 2.6746634875763524e-05 9.0844177529356748e-06 1.1689336994282797e-05 2.1035279465130702e-05 1.0930789570985557e-05 3.7487605252226920e-06 -2.7516091737880312e-05 -2.5037685263825608e-05 -1.0591238539225598e-05 1.0820611726865270e-05 2.2387103997192600e-05 2.7972443183506192e-05 2.3670295772904590e-05 1.2157499413369003e-05 2.3244658594679616e-05 -4.6782829257832094e-06 -2.4212216665763040e-05 1.3085039399193896e-05 -8.2646935868572330e-06 -1.9877036465731218e-05 3.4032442885099067e-06 1.5274767153106031e-05 8.8846902297253904e-06 -3.1311084704582770e-06 -2.5511169603703240e-05 -7.8490429389651943e-06 9.9636715190829471e-06 3.1652755745854421e-05 -2.8044463809365986e-05 -5.5339066788194068e-05 -2.3045154798138467e-05 2.1982008170442439e-05 1.0123772371679537e-05 -1.7490450199877591e-05 -5.0175044504378874e-05 -2.7999724934437038e-05 3.8480462558573934e-05 2.0010737346896207e-05 -1.3031670234548570e-05 -2.7848603629425112e-05 -5.5973475636549204e-06 6.0504851681357670e-06 -9.8323258161912841e-06 -1.0886486902686454e-05 -2.3381110397437121e-05 -1.3068005041770581e-05 1.1826786831961502e-05 -3.4930416554899372e-05 1.8112378410956465e-05 3.3773513857597061e-05 1.1392305259174534e-05 -2.7821784335099829e-05 -1.8712463594073442e-05 3.5713894655973154e-06 3.7256616600373892e-05 1.5056900486763551e-05 -3.2937469723930569e-05 
</DataArray>
</PointData>
<CellData></CellData>
<Points>
<DataArray type="Float64" Name="Points" NumberOfComponents="3" format="ascii">
-0.818182 -0.818182 0.000000 -0.818182 -0.636364 0.000000 -0.818182 -0.454545 0.000000 -0.818182 -0.272727 0.000000 -0.818182 -0.090909 0.000000 -0.818182 0.090909 0.000000 -0.818182 0.272727 0.000000 -0.818182 0.454545 0.000000 -0.818182 0.636364 0.000000 -0.818182 0.818182 0.000000 -0.636364 -0.818182 0.000000 -0.636364 -0.636364 0.000000 -0.636364 -0.454545 0.000000 -0.636364 -0.272727 0.000000 -0.636364 -0.090909 0.000000 -0.636364 0.090909 0.000000 -0.636364 0.272727 0.000000 -0.636364 0.454545 0.000000 -0.636364 0.636364 0.000000 -0.636364 0.818182 0.000000 -0.454545 -0.818182 0.000000 -0.454545 -0.636364 0.000000 -0.454545 -0.454545 0.000000 -0.454545 -0.272727 0.000000 -0.454545 -0.090909 0.000000 -0.454545 0.090909 0.000000 -0.454545 0.272727 0.000000 -0.454545 0.454545 0.000000 -0.454545 0.636364 0.000000 -0.454545 0.818182 0.000000 -0.272727 -0.818182 0.000000 -0.272727 -0.636364 0.000000 -0.272727 -0.454545 0.000000 -0.272727 -0.272727 0.000000 -0.272727 -0.090909 0.000000 -0.272727 0.090909 0.000000 -0.272727 0.272727 0.000000 -0.272727 0.454545 0.000000 -0.272727 0.636364 0.000000 -0.272727 0.818182 0.000000 -0.090909 -0.818182 0.000000 -0.090909 -0.636364 0.000000 -0.090909 -0.454545 0.000000 -0.090909 -0.272727 0.000000 -0.090909 -0.090909 0.000000 -0.090909 0.090909 0.000000 -0.090909 0.272727 0.000000 -0.090909 0.454545 0.000000 -0.090909 0.636364 0.000000 -0.090909 0.818182 0.000000 0.090909 -0.818182 0.000000 0.090909 -0.636364 0.000000 0.090909 -0.454545 0.000000 0.090909 -0.272727 0.000000 0.090909 -0.090909 0.000000 0.090909 0.090909 0.000000 0.090909 0.272727 0.000000 0.090909 0.454545 0.000000 0.090909 0.636364 0.000000 0.090909 0.818182 0.000000 0.272727 -0.818182 0.000000 0.272727 -0.636364 0.000000 0.272727 -0.454545 0.000000 0.272727 -0.272727 0.000000 0.272727 -0.090909 0.000000 0.272727 0.090909 0.000000 0.272727 0.272727 0.000000 0.272727 0.454545 0.000000 0.272727 0.636364 0.000000 0.272727 0.818182 0.000000 0.454545 -0.818182 0.000000 0.454545 -0.636364 0.000000 0.454545 -0.454545 0.000000 0.454545 -0.272727 0.000000 0.454545 -0.090909 0.000000 0.454545 0.090909 0.000000 0.454545 0.272727 0.000000 0.454545 0.454545 0.000000 0.454545 0.636364 0.000000 0.454545 0.818182 0.000000 0.636364 -0.818182 0.000000 0.636364 -0.636364 0.000000 0.636364 -0.454545 0.000000 0.636364 -0.272727 0.000000 0.636364 -0.090909 0.000000 0.636364 0.090909 0.000000 0.636364 0.272727 0.000000 0.636364 0.454545 0.000000 0.636364 0.636364 0.000000 0.636364 0.818182 0.000000 0.818182 -0.818182 0.000000 0.818182 -0.636364 0.000000 0.818182 -0.454545 0.000000 0.818182 -0.272727 0.000000 0.818182 -0.090909 0.000000 0.818182 0.090909 0.000000 0.818182 0.272727 0.000000 0.818182 0.454545 0.000000 0.818182 0.636364 0.000000 0.818182 0.818182 0.000000 
</DataArray>
</Points>
</Piece>
</StructuredGrid>
</VTKFile>
