<VTKFile type="StructuredGrid" version="1.0" byte_order="LittleEndian" header_type="UInt64">
<StructuredGrid WholeExtent="0 9 0 9 0 0">
<Piece Extent="0 9 0 9 0 0">
<PointData Scalars="residual">
<DataArray type="Float64" Name="residual" format="ascii">
-2.9996700256267050e-05 1.3840328457083786e-05 3.2485128213261688e-05 1.5984946362094729e-05 -3.5324158889071811e-06 -5.3294998240589753e-06 3.0721520634444457e-05 3.9373354816341771e-05 1.4740653052704861e-05 -2.5776361532716015e-05 2.7108113917415078e-06 1.3776231827390684e-05 1.2212376894762955e-05 1.7786415017685686e-05 4.8814531756133372e-06 2.5829621852230950e-07 2.1485590043227726e-05 1.0429733694500287e-05 1.1088095026047171e-05 1.7519345133902922e-05 3.0489073938910413e-05 1.5055590082095963e-05 -2.0556502246145414e-06 -2.3086516850569574e-06 4.5224501357410407e-06 -6.1380531685686565e-06 9.5885816232890719e-06 6.7428493538308765e-06 1.3279563522683099e-05 4.0626355836227007e-05 1.7257896150943072e-05 1.2323577787803561e-05 2.6865863895705888e-06 -6.6028125109357863e-07 -1.7180493253514742e-05 -1.0631915226738675e-05 -1.0559778380936683e-05 1.8464491730431701e-06 1.5631479670083492e-05 2.7779460400683201e-05 2.3835055477459260e-06 -8.2055064246381801e-06 7.1974965571335384e-06 -1.6572133734049296e-05 -1.9915778172278908e-05 -1.9429687611777907e-05 -5.4521761645512368e-06 -2.8403736761556039e-06 3.9225327277785105e-07 3.2177865291246194e-06 -7.6977753252042980e-06 -4.2968522189776662e-06 -4.6404176106207631e-06 -1.9137740598173733e-05 -2.3632869771384249e-05 -1.7087042414775516e-05 -7.3737109033550352e-06 -3.0704281260888165e-06 1.0779993802708353e-05 -7.7528405763339914e-06 1.5086421152424659e-05 1.3210415942457171e-06 1.3127701927791863e-05 -9.6408984783601754e-06 -1.1509357207714621e-05 -2.2791926498218727e-05 2.2792466810381143e-06 -1.2376333216827101e-06 6.1847766493414169e-06 1.6915033533078383e-05 2.6819946385347668e-05 1.6215869092072593e-05 2.1485823023803530e-06 1.3987777224026485e-06 -6.9037728547480248e-07 -2.7992966203514887e-06 5.5743979929584117e-06 -1.9601859079614037e-06 1.9871227682681167e-05 4.1070773920704254e-05 5.3186982923447701e-06 1.0432981517633985e-05 1.2059462329110787e-05 7.3370363110995818e-06 3.1094166714320040e-06 -5.5428260107952265e-07 2.4765881451501576e-06 1.3488747244036481e-05 2.2492430387844112e-05 6.9441926706780704e-06 -3.3492335455548305e-05 -2.1239719257860890e-07 2.5958836081436260e-05 2.2729015322367485e-05 -3.1658062370210072e-06 -8.2313507216574822e-06 1.4204552847250917e-05 3.9837693144270311e-05 5.5049585027874826e-06 -2.7494863037717983e-05 
</DataArray>
</PointData>
<CellData></CellData>
<Points>
<DataArray type="Float64" Name="Points" NumberOfComponents="3" format="ascii">
-0.818182 -0.818182 0.000000 -0.818182 -0.636364 0.000000 -0.818182 -0.454545 0.000000 -0.818182 -0.272727 0.000000 -0.818182 -0.090909 0.000000 -0.818182 0.090909 0.000000 -0.818182 0.272727 0.000000 -0.818182 0.454545 0.000000 -0.818182 0.636364 0.000000 -0.818182 0.818182 0.000000 -0.636364 -0.818182 0.000000 -0.636364 -0.636364 0.000000 -0.636364 -0.454545 0.000000 -0.636364 -0.272727 0.000000 -0.636364 -0.090909 0.000000 -0.636364 0.090909 0.000000 -0.636364 0.272727 0.000000 -0.636364 0.454545 0.000000 -0.636364 0.636364 0.000000 -0.636364 0.818182 0.000000 -0.454545 -0.818182 0.000000 -0.454545 -0.636364 0.000000 -0.454545 -0.454545 0.000000 -0.454545 -0.272727 0.000000 -0.454545 -0.090909 0.000000 -0.454545 0.090909 0.000000 -0.454545 0.272727 0.000000 -0.454545 0.454545 0.000000 -0.454545 0.636364 0.000000 -0.454545 0.818182 0.000000 -0.272727 -0.818182 0.000000 -0.272727 -0.636364 0.000000 -0.272727 -0.454545 0.000000 -0.272727 -0.272727 0.000000 -0.272727 -0.090909 0.000000 -0.272727 0.090909 0.000000 -0.272727 0.272727 0.000000 -0.272727 0.454545 0.000000 -0.272727 0.636364 0.000000 -0.272727 0.818182 0.000000 -0.090909 -0.818182 0.000000 -0.090909 -0.636364 0.000000 -0.090909 -0.454545 0.000000 -0.090909 -0.272727 0.000000 -0.090909 -0.090909 0.000000 -0.090909 0.090909 0.000000 -0.090909 0.272727 0.000000 -0.090909 0.454545 0.000000 -0.090909 0.636364 0.000000 -0.090909 0.818182 0.000000 0.090909 -0.818182 0.000000 0.090909 -0.636364 0.000000 0.090909 -0.454545 0.000000 0.090909 -0.272727 0.000000 0.090909 -0.090909 0.000000 0.090909 0.090909 0.000000 0.090909 0.272727 0.000000 0.090909 0.454545 0.000000 0.090909 0.636364 0.000000 0.090909 0.818182 0.000000 0.272727 -0.818182 0.000000 0.272727 -0.636364 0.000000 0.272727 -0.454545 0.000000 0.272727 -0.272727 0.000000 0.272727 -0.090909 0.000000 0.272727 0.090909 0.000000 0.272727 0.272727 0.000000 0.272727 0.454545 0.000000 0.272727 0.636364 0.000000 0.272727 0.818182 0.000000 0.454545 -0.818182 0.000000 0.454545 -0.636364 0.000000 0.454545 -0.454545 0.000000 0.454545 -0.272727 0.000000 0.454545 -0.090909 0.000000 0.454545 0.090909 0.000000 0.454545 0.272727 0.000000 0.454545 0.454545 0.000000 0.454545 0.636364 0.000000 0.454545 0.818182 0.000000 0.636364 -0.818182 0.000000 0.636364 -0.636364 0.000000 0.636364 -0.454545 0.000000 0.636364 -0.272727 0.000000 0.636364 -0.090909 0.000000 0.636364 0.090909 0.000000 0.636364 0.272727 0.000000 0.636364 0.454545 0.000000 0.636364 0.636364 0.000000 0.636364 0.818182 0.000000 0.818182 -0.818182 0.000000 0.818182 -0.636364 0.000000 0.818182 -0.454545 0.000000 0.818182 -0.272727 0.000000 0.818182 -0.090909 0.000000 0.818182 0.090909 0.000000 0.818182 0.272727 0.000000 0.818182 0.454545 0.000000 0.818182 0.636364 0.000000 0.818182 0.818182 0.000000 
</DataArray>
</Points>
</Piece>
</StructuredGrid>
</VTKFile>
