<VTKFile type="StructuredGrid" version="1.0" byte_order="LittleEndian" header_type="UInt64">
<StructuredGrid WholeExtent="0 9 0 9 0 0">
<Piece Extent="0 9 0 9 0 0">
<PointData Scalars="residual">
<DataArray type="Float64" Name="residual" format="ascii">
-2.8337469232660130e-06 -3.0576283756923164e-05 -5.8618270652785638e-05 -1.5904466233054946e-05 2.0405080879706827e-05 2.8284061692592823e-05 -1.5330915666609407e-05 -5.6334950211088097e-05 -4.2129295622471289e-05 -2.2898538630220704e-05 -3.6079920577565192e-05 -1.8069585620557153e-05 1.0384035158767825e-05 1.3482386493952718e-05 1.7396777441655575e-05 1.7458276663676053e-05 4.5578184164245597e-06 2.3154697149191730e-05 -1.3003510356223141e-05 -4.6235177870005990e-05 -5.1620114275421642e-05 1.7596062082013073e-05 4.6460479033279961e-05 2.1620038614181269e-05 7.0228869196893584e-06 -2.9550351048242274e-06 3.9299345709993203e-05 6.1170503838154505e-05 1.7354635105021332e-05 -5.4215660369544023e-05 -1.0139666600597792e-05 -2.3543566915282949e-06 2.5597918115315144e-05 1.8667871668749322e-05 2.3370882315954661e-05 3.7257938660169299e-05 2.8447942679652241e-05 3.3274747922426920e-05 1.9609629226255594e-05 -2.3104037203103799e-05 7.6070013682073834e-06 9.6926521615300215e-06 2.5175992496642707e-07 1.8168114885462952e-05 4.0025476935767745e-05 4.3308017212294672e-05 2.6372445707946446e-05 4.4207086714927873e-06 1.6897991585260175e-05 2.8996966668811720e-05 2.1662807183788976e-05 6.8708803480262148e-07 -7.3422169890625943e-06 1.3687611686406462e-05 3.6253909209122900e-05 4.8438937477130253e-05 3.1418005906601668e-05 1.5442430906148497e-05 7.6357332239526676e-06 3.1248117132173098e-05 -1.7092326128232294e-05 -4.1162349672307572e-06 1.3902182526793691e-05 1.7279811153092864e-05 1.6391362977912632e-05 1.9549883517995525e-05 2.7554346571260352e-05 3.2889599419895152e-05 5.8597501270928054e-06 -2.0769311794649036e-05 -4.9640309991608005e-05 5.4426692588527975e-06 4.4705474926782715e-05 2.2499075540322738e-05 -9.0550460939402971e-06 -5.4453389375375139e-07 2.9590749985966905e-05 5.1865820854445077e-05 1.0949454114912889e-05 -5.5568583414137510e-05 -4.7088262931354458e-05 -1.2900569184934579e-05 8.7393438538193452e-06 9.1997790408106933e-06 6.1514139804152990e-06 1.2397291489704698e-06 -1.2726188124735638e-06 1.8220680344837974e-05 -1.0050241700164820e-05 -3.6462005244612163e-05 -1.3142191115676294e-06 -3.3411050422235949e-05 -6.4021801769652015e-05 -2.6261535586606828e-05 2.6209136999758888e-05 2.3342988143145414e-05 -2.7063494204506225e-05 -5.2829240197437358e-05 -3.8327123697304462e-05 -1.4170748305460004e-05 
</DataArray>
</PointData>
<CellData></CellData>
<Points>
<DataArray type="Float64" Name="Points" NumberOfComponents="3" format="ascii">
-0.818182 -0.818182 0.000000 -0.818182 -0.636364 0.000000 -0.818182 -0.454545 0.000000 -0.818182 -0.272727 0.000000 -0.818182 -0.090909 0.000000 -0.818182 0.090909 0.000000 -0.818182 0.272727 0.000000 -0.818182 0.454545 0.000000 -0.818182 0.636364 0.000000 -0.818182 0.818182 0.000000 -0.636364 -0.818182 0.000000 -0.636364 -0.636364 0.000000 -0.636364 -0.454545 0.000000 -0.636364 -0.272727 0.000000 -0.636364 -0.090909 0.000000 -0.636364 0.090909 0.000000 -0.636364 0.272727 0.000000 -0.636364 0.454545 0.000000 -0.636364 0.636364 0.000000 -0.636364 0.818182 0.000000 -0.454545 -0.818182 0.000000 -0.454545 -0.636364 0.000000 -0.454545 -0.454545 0.000000 -0.454545 -0.272727 0.000000 -0.454545 -0.090909 0.000000 -0.454545 0.090909 0.000000 -0.454545 0.272727 0.000000 -0.454545 0.454545 0.000000 -0.454545 0.636364 0.000000 -0.454545 0.818182 0.000000 -0.272727 -0.818182 0.000000 -0.272727 -0.636364 0.000000 -0.272727 -0.454545 0.000000 -0.272727 -0.272727 0.000000 -0.272727 -0.090909 0.000000 -0.272727 0.090909 0.000000 -0.272727 0.272727 0.000000 -0.272727 0.454545 0.000000 -0.272727 0.636364 0.000000 -0.272727 0.818182 0.000000 -0.090909 -0.818182 0.000000 -0.090909 -0.636364 0.000000 -0.090909 -0.454545 0.000000 -0.090909 -0.272727 0.000000 -0.090909 -0.090909 0.000000 -0.090909 0.090909 0.000000 -0.090909 0.272727 0.000000 -0.090909 0.454545 0.000000 -0.090909 0.636364 0.000000 -0.090909 0.818182 0.000000 0.090909 -0.818182 0.000000 0.090909 -0.636364 0.000000 0.090909 -0.454545 0.000000 0.090909 -0.272727 0.000000 0.090909 -0.090909 0.000000 0.090909 0.090909 0.000000 0.090909 0.272727 0.000000 0.090909 0.454545 0.000000 0.090909 0.636364 0.000000 0.090909 0.818182 0.000000 0.272727 -0.818182 0.000000 0.272727 -0.636364 0.000000 0.272727 -0.454545 0.000000 0.272727 -0.272727 0.000000 0.272727 -0.090909 0.000000 0.272727 0.090909 0.000000 0.272727 0.272727 0.000000 0.272727 0.454545 0.000000 0.272727 0.636364 0.000000 0.272727 0.818182 0.000000 0.454545 -0.818182 0.000000 0.454545 -0.636364 0.000000 0.454545 -0.454545 0.000000 0.454545 -0.272727 0.000000 0.454545 -0.090909 0.000000 0.454545 0.090909 0.000000 0.454545 0.272727 0.000000 0.454545 0.454545 0.000000 0.454545 0.636364 0.000000 0.454545 0.818182 0.000000 0.636364 -0.818182 0.000000 0.636364 -0.636364 0.000000 0.636364 -0.454545 0.000000 0.636364 -0.272727 0.000000 0.636364 -0.090909 0.000000 0.636364 0.090909 0.000000 0.636364 0.272727 0.000000 0.636364 0.454545 0.000000 0.636364 0.636364 0.000000 0.636364 0.818182 0.000000 0.818182 -0.818182 0.000000 0.818182 -0.636364 0.000000 0.818182 -0.454545 0.000000 0.818182 -0.272727 0.000000 0.818182 -0.090909 0.000000 0.818182 0.090909 0.000000 0.818182 0.272727 0.000000 0.818182 0.454545 0.000000 0.818182 0.636364 0.000000 0.818182 0.818182 0.000000 
</DataArray>
</Points>
</Piece>
</StructuredGrid>
</VTKFile>
