<VTKFile type="StructuredGrid" version="1.0" byte_order="LittleEndian" header_type="UInt64">
<StructuredGrid WholeExtent="0 9 0 9 0 0">
<Piece Extent="0 9 0 9 0 0">
<PointData Scalars="residual">
<DataArray type="Float64" Name="residual" format="ascii">
1.4668568422432186e-05 1.8505867312775676e-07 1.4838808271916068e-06 -5.5084643953481199e-06 3.0956639799021440e-06 4.0530545295826281e-07 1.0597601385713140e-06 -8.6244509086286225e-06 1.4331993020931348e-05 7.0110819208584613e-06 1.6646755840463504e-06 8.7910354693992998e-06 2.7301203583277381e-06 -3.0925140010380249e-06 -1.5265975420934545e-05 -9.3709064432293682e-06 -2.5106461355346721e-06 4.8095572463876385e-06 -3.7035820082574264e-06 -1.8832271691119132e-06 1.0434182850715609e-06 6.1461321535002250e-06 -4.1850617332082549e-06 -1.3537275639126205e-05 -1.8039500058256164e-06 -9.3853323020198776e-06 -7.2852370236325958e-06 4.8467294014881840e-06 -4.4551748991979861e-07 5.5942448013461196e-06 -1.2672220231048706e-06 -2.5906049287561898e-06 5.1294789048129258e-06 -7.0044485368805053e-06 5.5463799539536528e-06 -7.4414908045293549e-06 2.3987691076263543e-06 -1.9314595596144762e-06 -3.2197263161201466e-06 -8.1282096058049765e-06 7.1697766087469410e-06 -9.1998530356109977e-06 -3.8909319808318014e-06 9.5682138137945238e-07 -1.6681217580036614e-06 4.3763259391970191e-06 -8.1739367974375740e-06 -1.0112213861116371e-05 -1.2612313637217279e-05 8.7556481086293117e-06 -3.2225243484958199e-06 -9.3530969598808016e-06 -1.3086174699505557e-05 4.1071068897051421e-07 -4.2495761242251559e-06 -2.8057967118985325e-06 -6.0618342632209193e-07 -1.1220243359369702e-05 -2.2800550935602598e-06 -1.1957064138637050e-05 -7.3780777591070379e-06 5.5212112903364405e-06 -1.2584069591257616e-05 -1.2047055265876350e-05 6.0679333652516321e-06 -7.3273736286632793e-06 -5.8067639984722523e-06 -5.1857212529397498e-06 -7.7054685041540866e-07 2.7507465710477526e-06 2.0301828929144422e-06 7.5150190241143541e-06 2.6936306071582983e-06 3.1717065227814152e-06 -1.3305806137514729e-05 -4.3148190135384665e-06 3.7146374738338504e-06 8.8827685280085805e-06 -5.8984303593512949e-06 9.6665695171072735e-07 1.3365164528285518e-05 -3.2380286973630878e-06 6.3207347776655584e-06 -8.9628427058213028e-08 -1.6264346427802452e-05 -3.2761029646554383e-06 -1.0802667962400096e-05 2.8389926880123192e-06 -8.0495301888437731e-07 4.7651856660028621e-06 1.1038281017360964e-05 6.9898233854897782e-06 -9.4949753664044789e-07 1.7096659969723267e-06 3.1083425026420634e-06 -5.1900924117539993e-06 3.3646215162872785e-06 5.8718686124096045e-06 1.9559357677832387e-06 1.1309929189012337e-05 
</DataArray>
</PointData>
<CellData></CellData>
<Points>
<DataArray type="Float64" Name="Points" NumberOfComponents="3" format="ascii">
-0.818182 -0.818182 0.000000 -0.818182 -0.636364 0.000000 -0.818182 -0.454545 0.000000 -0.818182 -0.272727 0.000000 -0.818182 -0.090909 0.000000 -0.818182 0.090909 0.000000 -0.818182 0.272727 0.000000 -0.818182 0.454545 0.000000 -0.818182 0.636364 0.000000 -0.818182 0.818182 0.000000 -0.636364 -0.818182 0.000000 -0.636364 -0.636364 0.000000 -0.636364 -0.454545 0.000000 -0.636364 -0.272727 0.000000 -0.636364 -0.090909 0.000000 -0.636364 0.090909 0.000000 -0.636364 0.272727 0.000000 -0.636364 0.454545 0.000000 -0.636364 0.636364 0.000000 -0.636364 0.818182 0.000000 -0.454545 -0.818182 0.000000 -0.454545 -0.636364 0.000000 -0.454545 -0.454545 0.000000 -0.454545 -0.272727 0.000000 -0.454545 -0.090909 0.000000 -0.454545 0.090909 0.000000 -0.454545 0.272727 0.000000 -0.454545 0.454545 0.000000 -0.454545 0.636364 0.000000 -0.454545 0.818182 0.000000 -0.272727 -0.818182 0.000000 -0.272727 -0.636364 0.000000 -0.272727 -0.454545 0.000000 -0.272727 -0.272727 0.000000 -0.272727 -0.090909 0.000000 -0.272727 0.090909 0.000000 -0.272727 0.272727 0.000000 -0.272727 0.454545 0.000000 -0.272727 0.636364 0.000000 -0.272727 0.818182 0.000000 -0.090909 -0.818182 0.000000 -0.090909 -0.636364 0.000000 -0.090909 -0.454545 0.000000 -0.090909 -0.272727 0.000000 -0.090909 -0.090909 0.000000 -0.090909 0.090909 0.000000 -0.090909 0.272727 0.000000 -0.090909 0.454545 0.000000 -0.090909 0.636364 0.000000 -0.090909 0.818182 0.000000 0.090909 -0.818182 0.000000 0.090909 -0.636364 0.000000 0.090909 -0.454545 0.000000 0.090909 -0.272727 0.000000 0.090909 -0.090909 0.000000 0.090909 0.090909 0.000000 0.090909 0.272727 0.000000 0.090909 0.454545 0.000000 0.090909 0.636364 0.000000 0.090909 0.818182 0.000000 0.272727 -0.818182 0.000000 0.272727 -0.636364 0.000000 0.272727 -0.454545 0.000000 0.272727 -0.272727 0.000000 0.272727 -0.090909 0.000000 0.272727 0.090909 0.000000 0.272727 0.272727 0.000000 0.272727 0.454545 0.000000 0.272727 0.636364 0.000000 0.272727 0.818182 0.000000 0.454545 -0.818182 0.000000 0.454545 -0.636364 0.000000 0.454545 -0.454545 0.000000 0.454545 -0.272727 0.000000 0.454545 -0.090909 0.000000 0.454545 0.090909 0.000000 0.454545 0.272727 0.000000 0.454545 0.454545 0.000000 0.454545 0.636364 0.000000 0.454545 0.818182 0.000000 0.636364 -0.818182 0.000000 0.636364 -0.636364 0.000000 0.636364 -0.454545 0.000000 0.636364 -0.272727 0.000000 0.636364 -0.090909 0.000000 0.636364 0.090909 0.000000 0.636364 0.272727 0.000000 0.636364 0.454545 0.000000 0.636364 0.636364 0.000000 0.636364 0.818182 0.000000 0.818182 -0.818182 0.000000 0.818182 -0.636364 0.000000 0.818182 -0.454545 0.000000 0.818182 -0.272727 0.000000 0.818182 -0.090909 0.000000 0.818182 0.090909 0.000000 0.818182 0.272727 0.000000 0.818182 0.454545 0.000000 0.818182 0.636364 0.000000 0.818182 0.818182 0.000000 
</DataArray>
</Points>
</Piece>
</StructuredGrid>
</VTKFile>
