<VTKFile type="StructuredGrid" version="1.0" byte_order="LittleEndian" header_type="UInt64">
<StructuredGrid WholeExtent="0 9 0 9 0 0">
<Piece Extent="0 9 0 9 0 0">
<PointData Scalars="residual">
<DataArray type="Float64" Name="residual" format="ascii">
-1.1468260331004738e-06 -8.9076925690323439e-06 3.3726669660585212e-06 -9.8014717001297311e-07 -3.9771321785090838e-06 -3.7403571290037935e-06 -2.8431956812270676e-06 -1.6016294832415200e-06 -4.3882465890114977e-06 -1.0375472833270335e-05 -2.5949008751169865e-06 1.1860385565692043e-06 1.4075053998583928e-06 -4.8815140635195993e-06 1.5677392973595036e-06 1.6344559566282800e-06 -4.8200532565541125e-06 -3.2112473621270180e-06 4.8486492481396304e-06 -2.9241663987373059e-06 1.0925735826414727e-05 -2.6920189734813086e-06 2.9157117695599935e-06 -1.3042919978032558e-06 -1.1387979714145170e-05 -1.1351912078704819e-05 -3.3200453740194445e-06 -1.2451697398948615e-06 -4.2844041364545685e-07 -1.6403269314400545e-06 -5.4081836300826427e-06 -1.9836953170796270e-06 -1.1130438727136906e-06 -5.5748134283276768e-06 -6.2958457274385135e-06 6.4311761604940627e-06 -7.0751657220485473e-06 5.3072280983791284e-07 -1.0765064871522470e-05 -4.2547482037229127e-06 6.6904223277757836e-06 -4.1981377747256181e-06 -4.7919221042142489e-06 8.9820396985415898e-06 3.2393207359260323e-06 1.3169216282658391e-05 5.1504735920334180e-07 -1.2687291500678571e-05 -3.1350368771112039e-06 -6.4025726435237157e-06 -8.8478945532103476e-07 -1.2891716890377908e-06 -7.9495702974712902e-06 -3.3644314054656621e-06 1.0368695077667047e-05 -1.2438690582660533e-06 -3.1818821540465295e-07 -5.9554631316447761e-06 -5.8444517690762164e-06 1.4301962651488455e-06 8.5679110606502219e-06 9.6152885179466574e-07 -2.7134327969758829e-06 6.1358027340957695e-06 -8.0091255961339813e-06 -6.9817193389925397e-06 7.3055389070066784e-06 -9.9073085848850467e-06 4.7490570250665991e-06 -1.6445845070203399e-06 4.7698997449026684e-06 -5.2429909211130967e-06 -8.3758326900724121e-06 2.1472580745470621e-06 -8.5135374428900283e-06 -9.6803024051783475e-06 -8.5052253399574285e-06 5.2773788773007729e-06 -8.6347348509502580e-06 -3.7924834085756136e-06 -6.1454654793893435e-06 5.4587361532762099e-06 3.1521950367230725e-06 8.8473669710448927e-06 3.6441883641750820e-06 4.2888688027561614e-07 1.9248354667230835e-07 -3.4457033909051239e-06 -2.9674663764192415e-06 -2.1126052146603659e-06 -8.7249999752630689e-07 -5.0642276141531564e-06 2.4253264224419376e-06 -6.7774334843459863e-07 -2.2094744717526642e-06 7.6534531733138053e-07 -5.8735276749514662e-07 2.0158413818294023e-06 1.3196653000490527e-07 -9.4931270448921426e-06 
</DataArray>
</PointData>
<CellData></CellData>
<Points>
<DataArray type="Float64" Name="Points" NumberOfComponents="3" format="ascii">
-0.818182 -0.818182 0.000000 -0.818182 -0.636364 0.000000 -0.818182 -0.454545 0.000000 -0.818182 -0.272727 0.000000 -0.818182 -0.090909 0.000000 -0.818182 0.090909 0.000000 -0.818182 0.272727 0.000000 -0.818182 0.454545 0.000000 -0.818182 0.636364 0.000000 -0.818182 0.818182 0.000000 -0.636364 -0.818182 0.000000 -0.636364 -0.636364 0.000000 -0.636364 -0.454545 0.000000 -0.636364 -0.272727 0.000000 -0.636364 -0.090909 0.000000 -0.636364 0.090909 0.000000 -0.636364 0.272727 0.000000 -0.636364 0.454545 0.000000 -0.636364 0.636364 0.000000 -0.636364 0.818182 0.000000 -0.454545 -0.818182 0.000000 -0.454545 -0.636364 0.000000 -0.454545 -0.454545 0.000000 -0.454545 -0.272727 0.000000 -0.454545 -0.090909 0.000000 -0.454545 0.090909 0.000000 -0.454545 0.272727 0.000000 -0.454545 0.454545 0.000000 -0.454545 0.636364 0.000000 -0.454545 0.818182 0.000000 -0.272727 -0.818182 0.000000 -0.272727 -0.636364 0.000000 -0.272727 -0.454545 0.000000 -0.272727 -0.272727 0.000000 -0.272727 -0.090909 0.000000 -0.272727 0.090909 0.000000 -0.272727 0.272727 0.000000 -0.272727 0.454545 0.000000 -0.272727 0.636364 0.000000 -0.272727 0.818182 0.000000 -0.090909 -0.818182 0.000000 -0.090909 -0.636364 0.000000 -0.090909 -0.454545 0.000000 -0.090909 -0.272727 0.000000 -0.090909 -0.090909 0.000000 -0.090909 0.090909 0.000000 -0.090909 0.272727 0.000000 -0.090909 0.454545 0.000000 -0.090909 0.636364 0.000000 -0.090909 0.818182 0.000000 0.090909 -0.818182 0.000000 0.090909 -0.636364 0.000000 0.090909 -0.454545 0.000000 0.090909 -0.272727 0.000000 0.090909 -0.090909 0.000000 0.090909 0.090909 0.000000 0.090909 0.272727 0.000000 0.090909 0.454545 0.000000 0.090909 0.636364 0.000000 0.090909 0.818182 0.000000 0.272727 -0.818182 0.000000 0.272727 -0.636364 0.000000 0.272727 -0.454545 0.000000 0.272727 -0.272727 0.000000 0.272727 -0.090909 0.000000 0.272727 0.090909 0.000000 0.272727 0.272727 0.000000 0.272727 0.454545 0.000000 0.272727 0.636364 0.000000 0.272727 0.818182 0.000000 0.454545 -0.818182 0.000000 0.454545 -0.636364 0.000000 0.454545 -0.454545 0.000000 0.454545 -0.272727 0.000000 0.454545 -0.090909 0.000000 0.454545 0.090909 0.000000 0.454545 0.272727 0.000000 0.454545 0.454545 0.000000 0.454545 0.636364 0.000000 0.454545 0.818182 0.000000 0.636364 -0.818182 0.000000 0.636364 -0.636364 0.000000 0.636364 -0.454545 0.000000 0.636364 -0.272727 0.000000 0.636364 -0.090909 0.000000 0.636364 0.090909 0.000000 0.636364 0.272727 0.000000 0.636364 0.454545 0.000000 0.636364 0.636364 0.000000 0.636364 0.818182 0.000000 0.818182 -0.818182 0.000000 0.818182 -0.636364 0.000000 0.818182 -0.454545 0.000000 0.818182 -0.272727 0.000000 0.818182 -0.090909 0.000000 0.818182 0.090909 0.000000 0.818182 0.272727 0.000000 0.818182 0.454545 0.000000 0.818182 0.636364 0.000000 0.818182 0.818182 0.000000 
</DataArray>
</Points>
</Piece>
</StructuredGrid>
</VTKFile>
