<VTKFile type="StructuredGrid" version="1.0" byte_order="LittleEndian" header_type="UInt64">
<StructuredGrid WholeExtent="0 9 0 9 0 0">
<Piece Extent="0 9 0 9 0 0">
<PointData Scalars="residual">
<DataArray type="Float64" Name="residual" format="ascii">
-4.1038524266961626e-06 -5.5900149926735310e-06 2.1283780797347329e-07 -7.0057672057685649e-06 1.1430963854113484e-05 -4.7856536226362559e-06 8.5225866477446621e-06 -2.6828543410956432e-06 -1.1571847254679760e-05 -3.4085222207361557e-06 -6.6109148064040155e-06 4.9863656495507946e-07 1.2766981726088436e-05 7.0641980601873766e-06 1.6421948780540215e-05 1.0248540255181765e-05 5.4757687434478161e-06 8.1804386449328692e-07 -1.4005158744056188e-05 -1.2286205179424040e-05 -1.5672400966943237e-06 -3.2625925534789102e-06 2.4203328487771257e-06 1.0916276977302342e-05 1.8214384474213655e-05 6.4712371951325398e-06 1.8258528538708622e-06 1.0502930349488761e-05 7.5383523593861024e-06 -1.7684722512702894e-07 2.8723324655048968e-06 1.3450817110321166e-05 1.2160194242211500e-05 6.1858786307347063e-06 2.8145560145471926e-06 2.8289038294174174e-06 1.3046873283934814e-05 7.5926931112843543e-07 8.6443619024467386e-06 -1.7344826921169426e-06 1.2945062987500949e-06 9.0246020014034256e-06 1.1594323262741416e-05 4.3694878115712460e-06 6.8411180929612431e-07 -1.5936752825254641e-06 -5.2238519136979522e-06 1.0402916528276518e-05 1.1407636468552945e-05 2.5679739530468787e-06 4.5082542366710679e-06 1.2971466223987878e-05 6.9100926320710132e-06 1.1952809192536731e-05 6.9027838263827426e-06 7.3047885751978403e-06 2.7856232648589344e-06 8.0743095791022124e-06 1.3197963951994129e-05 1.5459664289537225e-06 7.4928219407424668e-06 1.2135541891739737e-05 1.7514430375729570e-05 2.8564705351653841e-06 8.4405688272034055e-06 8.9765618918481033e-06 1.2107871111614182e-05 1.6396951036969781e-05 4.0031702406000819e-06 8.6876186623620691e-06 9.0158798459437361e-07 5.9154518424961444e-06 9.8957659093097151e-06 1.5127976156092352e-05 9.0736587956387685e-06 1.4569834012819610e-05 4.9781739951547561e-06 3.7389136207668060e-06 6.7906487380411593e-06 -2.2879639788404502e-06 -1.1314263689866932e-05 -2.0656555268783183e-06 -5.9917073771866697e-07 9.0974268520957816e-06 1.3465524461301476e-05 4.1547780938507722e-06 7.1669879448711671e-08 3.6512874328886030e-06 -6.5752850507590221e-06 -8.7811529469426775e-06 -1.4828159361308588e-06 1.2859534440669285e-06 -1.2643162545641559e-06 6.8951564840755153e-06 5.6308968636818030e-06 1.2298634687619298e-05 -4.8454832365192255e-06 -3.5390130413981424e-06 2.3682470483175552e-06 -8.1576542309228645e-06 
</DataArray>
</PointData>
<CellData></CellData>
<Points>
<DataArray type="Float64" Name="Points" NumberOfComponents="3" format="ascii">
-0.818182 -0.818182 0.000000 -0.818182 -0.636364 0.000000 -0.818182 -0.454545 0.000000 -0.818182 -0.272727 0.000000 -0.818182 -0.090909 0.000000 -0.818182 0.090909 0.000000 -0.818182 0.272727 0.000000 -0.818182 0.454545 0.000000 -0.818182 0.636364 0.000000 -0.818182 0.818182 0.000000 -0.636364 -0.818182 0.000000 -0.636364 -0.636364 0.000000 -0.636364 -0.454545 0.000000 -0.636364 -0.272727 0.000000 -0.636364 -0.090909 0.000000 -0.636364 0.090909 0.000000 -0.636364 0.272727 0.000000 -0.636364 0.454545 0.000000 -0.636364 0.636364 0.000000 -0.636364 0.818182 0.000000 -0.454545 -0.818182 0.000000 -0.454545 -0.636364 0.000000 -0.454545 -0.454545 0.000000 -0.454545 -0.272727 0.000000 -0.454545 -0.090909 0.000000 -0.454545 0.090909 0.000000 -0.454545 0.272727 0.000000 -0.454545 0.454545 0.000000 -0.454545 0.636364 0.000000 -0.454545 0.818182 0.000000 -0.272727 -0.818182 0.000000 -0.272727 -0.636364 0.000000 -0.272727 -0.454545 0.000000 -0.272727 -0.272727 0.000000 -0.272727 -0.090909 0.000000 -0.272727 0.090909 0.000000 -0.272727 0.272727 0.000000 -0.272727 0.454545 0.000000 -0.272727 0.636364 0.000000 -0.272727 0.818182 0.000000 -0.090909 -0.818182 0.000000 -0.090909 -0.636364 0.000000 -0.090909 -0.454545 0.000000 -0.090909 -0.272727 0.000000 -0.090909 -0.090909 0.000000 -0.090909 0.090909 0.000000 -0.090909 0.272727 0.000000 -0.090909 0.454545 0.000000 -0.090909 0.636364 0.000000 -0.090909 0.818182 0.000000 0.090909 -0.818182 0.000000 0.090909 -0.636364 0.000000 0.090909 -0.454545 0.000000 0.090909 -0.272727 0.000000 0.090909 -0.090909 0.000000 0.090909 0.090909 0.000000 0.090909 0.272727 0.000000 0.090909 0.454545 0.000000 0.090909 0.636364 0.000000 0.090909 0.818182 0.000000 0.272727 -0.818182 0.000000 0.272727 -0.636364 0.000000 0.272727 -0.454545 0.000000 0.272727 -0.272727 0.000000 0.272727 -0.090909 0.000000 0.272727 0.090909 0.000000 0.272727 0.272727 0.000000 0.272727 0.454545 0.000000 0.272727 0.636364 0.000000 0.272727 0.818182 0.000000 0.454545 -0.818182 0.000000 0.454545 -0.636364 0.000000 0.454545 -0.454545 0.000000 0.454545 -0.272727 0.000000 0.454545 -0.090909 0.000000 0.454545 0.090909 0.000000 0.454545 0.272727 0.000000 0.454545 0.454545 0.000000 0.454545 0.636364 0.000000 0.454545 0.818182 0.000000 0.636364 -0.818182 0.000000 0.636364 -0.636364 0.000000 0.636364 -0.454545 0.000000 0.636364 -0.272727 0.000000 0.636364 -0.090909 0.000000 0.636364 0.090909 0.000000 0.636364 0.272727 0.000000 0.636364 0.454545 0.000000 0.636364 0.636364 0.000000 0.636364 0.818182 0.000000 0.818182 -0.818182 0.000000 0.818182 -0.636364 0.000000 0.818182 -0.454545 0.000000 0.818182 -0.272727 0.000000 0.818182 -0.090909 0.000000 0.818182 0.090909 0.000000 0.818182 0.272727 0.000000 0.818182 0.454545 0.000000 0.818182 0.636364 0.000000 0.818182 0.818182 0.000000 
</DataArray>
</Points>
</Piece>
</StructuredGrid>
</VTKFile>
