<VTKFile type="StructuredGrid" version="1.0" byte_order="LittleEndian" header_type="UInt64">
<StructuredGrid WholeExtent="0 9 0 9 0 0">
<Piece Extent="0 9 0 9 0 0">
<PointData Scalars="residual">
<DataArray type="Float64" Name="residual" format="ascii">
-2.2731738959294590e-06 -3.1507231310588801e-07 2.0899788031295170e-06 -2.4428015609756493e-06 1.7890113257386115e-06 -5.0702592536647911e-06 5.7878287574629830e-06 -5.4333795527859025e-06 4.3313749105394588e-06 1.1857264160474411e-06 8.2608603805362987e-07 7.1225824492147580e-06 9.3539276179136106e-06 -8.2929490198189147e-06 -4.8460929450043141e-06 1.8658960911840938e-06 -4.2227881933594447e-06 -5.1434756375345544e-07 3.1156133474181426e-06 -4.1042521768449441e-06 -1.0812824266565827e-05 7.7530740855060593e-07 -1.3217104487344387e-05 2.8288643227950515e-06 5.8869574743160638e-06 5.9086611754314601e-06 -6.3013700843648525e-06 1.5618142500065796e-06 -8.4778997070720889e-06 6.6674992535435858e-06 3.8007517533106272e-06 4.1922837687689840e-06 3.2065678362488970e-06 -4.1521318310372944e-06 -5.2369851084705342e-06 -6.4605406426829822e-06 -9.5655187043182203e-06 2.6313591596689202e-06 7.1300334781457600e-06 -1.4061545775042456e-06 -1.3366592421192296e-06 -2.9204660836911790e-06 3.5058505867815656e-06 8.4152106182512534e-06 -1.3575177980292875e-05 -1.1904106931441647e-05 -9.7689369869032733e-08 -7.7417041732894681e-06 2.6250283271895755e-06 -6.0616335711657140e-06 -2.2617702255416962e-06 -7.9820119596564834e-06 -2.7630855772256720e-06 4.5317765346092938e-06 5.8454855624307401e-06 5.9238741045245652e-07 -8.5506802733443469e-06 4.9062075837048337e-06 -5.5676817769224028e-06 -2.6261221957018382e-06 6.1355443328444184e-06 4.3130593843799386e-06 2.2794772956678290e-06 5.2930570978017115e-06 -3.1021209897107074e-06 -1.0102705554649325e-05 -3.0728185858412693e-06 -6.4071940500940762e-06 3.2557337014357292e-06 4.0542877188754975e-06 -5.0221494251280127e-06 -5.4981844464611906e-06 2.5576580386962693e-06 -1.4102017169724188e-06 7.3551895058846309e-06 -4.7731108346175423e-06 3.3343092560706410e-06 6.3713576138146703e-06 -4.9007728024951305e-06 5.0756004880982662e-06 6.9988476203166304e-06 -4.1522246872413571e-06 -5.1983399345745078e-06 6.4621828997097480e-06 7.5192824000140657e-06 -8.6243920038378552e-06 3.9045330210273760e-07 -2.0351638002117332e-06 -3.4114552669682607e-06 2.5411387127209986e-06 -6.4831489873977757e-06 5.4465367402439270e-06 -2.4849076454337184e-06 4.1028921415123265e-06 -6.1421890673936819e-06 2.6050553837866745e-06 -4.8042525216027664e-06 -8.1218635188638755e-07 2.7921886215334819e-06 -8.9900648476883699e-07 
</DataArray>
</PointData>
<CellData></CellData>
<Points>
<DataArray type="Float64" Name="Points" NumberOfComponents="3" format="ascii">
-0.818182 -0.818182 0.000000 -0.818182 -0.636364 0.000000 -0.818182 -0.454545 0.000000 -0.818182 -0.272727 0.000000 -0.818182 -0.090909 0.000000 -0.818182 0.090909 0.000000 -0.818182 0.272727 0.000000 -0.818182 0.454545 0.000000 -0.818182 0.636364 0.000000 -0.818182 0.818182 0.000000 -0.636364 -0.818182 0.000000 -0.636364 -0.636364 0.000000 -0.636364 -0.454545 0.000000 -0.636364 -0.272727 0.000000 -0.636364 -0.090909 0.000000 -0.636364 0.090909 0.000000 -0.636364 0.272727 0.000000 -0.636364 0.454545 0.000000 -0.636364 0.636364 0.000000 -0.636364 0.818182 0.000000 -0.454545 -0.818182 0.000000 -0.454545 -0.636364 0.000000 -0.454545 -0.454545 0.000000 -0.454545 -0.272727 0.000000 -0.454545 -0.090909 0.000000 -0.454545 0.090909 0.000000 -0.454545 0.272727 0.000000 -0.454545 0.454545 0.000000 -0.454545 0.636364 0.000000 -0.454545 0.818182 0.000000 -0.272727 -0.818182 0.000000 -0.272727 -0.636364 0.000000 -0.272727 -0.454545 0.000000 -0.272727 -0.272727 0.000000 -0.272727 -0.090909 0.000000 -0.272727 0.090909 0.000000 -0.272727 0.272727 0.000000 -0.272727 0.454545 0.000000 -0.272727 0.636364 0.000000 -0.272727 0.818182 0.000000 -0.090909 -0.818182 0.000000 -0.090909 -0.636364 0.000000 -0.090909 -0.454545 0.000000 -0.090909 -0.272727 0.000000 -0.090909 -0.090909 0.000000 -0.090909 0.090909 0.000000 -0.090909 0.272727 0.000000 -0.090909 0.454545 0.000000 -0.090909 0.636364 0.000000 -0.090909 0.818182 0.000000 0.090909 -0.818182 0.000000 0.090909 -0.636364 0.000000 0.090909 -0.454545 0.000000 0.090909 -0.272727 0.000000 0.090909 -0.090909 0.000000 0.090909 0.090909 0.000000 0.090909 0.272727 0.000000 0.090909 0.454545 0.000000 0.090909 0.636364 0.000000 0.090909 0.818182 0.000000 0.272727 -0.818182 0.000000 0.272727 -0.636364 0.000000 0.272727 -0.454545 0.000000 0.272727 -0.272727 0.000000 0.272727 -0.090909 0.000000 0.272727 0.090909 0.000000 0.272727 0.272727 0.000000 0.272727 0.454545 0.000000 0.272727 0.636364 0.000000 0.272727 0.818182 0.000000 0.454545 -0.818182 0.000000 0.454545 -0.636364 0.000000 0.454545 -0.454545 0.000000 0.454545 -0.272727 0.000000 0.454545 -0.090909 0.000000 0.454545 0.090909 0.000000 0.454545 0.272727 0.000000 0.454545 0.454545 0.000000 0.454545 0.636364 0.000000 0.454545 0.818182 0.000000 0.636364 -0.818182 0.000000 0.636364 -0.636364 0.000000 0.636364 -0.454545 0.000000 0.636364 -0.272727 0.000000 0.636364 -0.090909 0.000000 0.636364 0.090909 0.000000 0.636364 0.272727 0.000000 0.636364 0.454545 0.000000 0.636364 0.636364 0.000000 0.636364 0.818182 0.000000 0.818182 -0.818182 0.000000 0.818182 -0.636364 0.000000 0.818182 -0.454545 0.000000 0.818182 -0.272727 0.000000 0.818182 -0.090909 0.000000 0.818182 0.090909 0.000000 0.818182 0.272727 0.000000 0.818182 0.454545 0.000000 0.818182 0.636364 0.000000 0.818182 0.818182 0.000000 
</DataArray>
</Points>
</Piece>
</StructuredGrid>
</VTKFile>
