<VTKFile type="StructuredGrid" version="1.0" byte_order="LittleEndian" header_type="UInt64">
<StructuredGrid WholeExtent="0 9 0 9 0 0">
<Piece Extent="0 9 0 9 0 0">
<PointData Scalars="residual">
<DataArray type="Float64" Name="residual" format="ascii">
-2.6518248229312653e-05 4.0269031125399028e-06 1.0220993351931114e-05 -1.9060157198922713e-07 -7.3114874508625229e-06 4.7100213057154391e-06 2.4213782415867698e-07 6.8164912462488495e-06 -6.4169992547982377e-06 -1.7004557401063825e-05 3.1947975968255916e-06 -9.9746280017534608e-06 -6.4391951709852867e-06 2.7755370264111873e-06 -4.1806576962684361e-06 6.3480790630891792e-07 1.3087991925170642e-06 1.5681074473070968e-05 1.1163538999677588e-05 -7.4968521231208278e-06 4.1313340727523089e-06 7.9630804096821051e-06 4.5930176742481343e-06 1.2704600353026507e-06 1.0048061479951687e-05 -4.2697556080634191e-06 4.2483303884770923e-07 -3.4440175635122930e-06 -2.5540615802167183e-06 1.6663592257322381e-05 1.2361496837900478e-06 3.2318641715635421e-06 -4.0232860311897531e-06 5.2661769166300818e-06 7.4918316075390026e-06 9.6028987353760989e-06 1.1546379911777684e-05 -4.6892866098777533e-06 8.3695285054063637e-06 -5.2604699596650291e-06 2.5900184170886149e-06 -2.1792720981935257e-06 1.2202231847523171e-05 1.8758377241771471e-05 2.8212791944861367e-05 2.0987237472284330e-05 1.7669680818006676e-05 5.3834224516720319e-06 2.8610298238558943e-06 -2.5735113576184302e-06 -2.2125060187253194e-06 6.8503836733301710e-07 4.4934924540874360e-06 1.6796901975935259e-05 1.8642199742256510e-05 2.7908109640652559e-05 6.4585247755068881e-06 -3.9910322887429239e-06 -4.6314465965667517e-07 -2.3006929145050724e-06 3.9469792108881617e-06 -6.7168911885122362e-07 5.8007139640825489e-06 8.0197912008857924e-06 1.8772249963944741e-05 1.0161826876096090e-05 3.7245464763711877e-06 2.1452618882344607e-06 -5.1694648065996399e-06 2.1098821394924510e-06 1.0975197949534892e-05 6.2226648388551478e-06 -7.1044756826043817e-06 7.6649065349574524e-06 4.3884787343292236e-06 1.0214401175663579e-05 7.5540508139267451e-06 8.2546486596078716e-06 -5.8628773889264109e-06 8.8543319081754029e-06 -1.0647498254340044e-05 -7.5070827578073017e-06 -5.9569695847524334e-07 6.0325879592927970e-06 -3.8631704667325267e-06 5.3513832146915435e-07 -6.0022250442963096e-06 9.9388695044763664e-06 -6.0039588564481019e-07 3.9115194194055958e-06 -1.8515100816881083e-05 -6.0252350649638020e-06 7.0341066194917192e-06 3.8420457831993835e-06 4.2627717867452924e-06 -8.6423406934709422e-06 9.3329974168199518e-06 1.0901430190086905e-05 -1.0082761666817524e-05 -2.2143421050904721e-05 
</DataArray>
</PointData>
<CellData></CellData>
<Points>
<DataArray type="Float64" Name="Points" NumberOfComponents="3" format="ascii">
-0.818182 -0.818182 0.000000 -0.818182 -0.636364 0.000000 -0.818182 -0.454545 0.000000 -0.818182 -0.272727 0.000000 -0.818182 -0.090909 0.000000 -0.818182 0.090909 0.000000 -0.818182 0.272727 0.000000 -0.818182 0.454545 0.000000 -0.818182 0.636364 0.000000 -0.818182 0.818182 0.000000 -0.636364 -0.818182 0.000000 -0.636364 -0.636364 0.000000 -0.636364 -0.454545 0.000000 -0.636364 -0.272727 0.000000 -0.636364 -0.090909 0.000000 -0.636364 0.090909 0.000000 -0.636364 0.272727 0.000000 -0.636364 0.454545 0.000000 -0.636364 0.636364 0.000000 -0.636364 0.818182 0.000000 -0.454545 -0.818182 0.000000 -0.454545 -0.636364 0.000000 -0.454545 -0.454545 0.000000 -0.454545 -0.272727 0.000000 -0.454545 -0.090909 0.000000 -0.454545 0.090909 0.000000 -0.454545 0.272727 0.000000 -0.454545 0.454545 0.000000 -0.454545 0.636364 0.000000 -0.454545 0.818182 0.000000 -0.272727 -0.818182 0.000000 -0.272727 -0.636364 0.000000 -0.272727 -0.454545 0.000000 -0.272727 -0.272727 0.000000 -0.272727 -0.090909 0.000000 -0.272727 0.090909 0.000000 -0.272727 0.272727 0.000000 -0.272727 0.454545 0.000000 -0.272727 0.636364 0.000000 -0.272727 0.818182 0.000000 -0.090909 -0.818182 0.000000 -0.090909 -0.636364 0.000000 -0.090909 -0.454545 0.000000 -0.090909 -0.272727 0.000000 -0.090909 -0.090909 0.000000 -0.090909 0.090909 0.000000 -0.090909 0.272727 0.000000 -0.090909 0.454545 0.000000 -0.090909 0.636364 0.000000 -0.090909 0.818182 0.000000 0.090909 -0.818182 0.000000 0.090909 -0.636364 0.000000 0.090909 -0.454545 0.000000 0.090909 -0.272727 0.000000 0.090909 -0.090909 0.000000 0.090909 0.090909 0.000000 0.090909 0.272727 0.000000 0.090909 0.454545 0.000000 0.090909 0.636364 0.000000 0.090909 0.818182 0.000000 0.272727 -0.818182 0.000000 0.272727 -0.636364 0.000000 0.272727 -0.454545 0.000000 0.272727 -0.272727 0.000000 0.272727 -0.090909 0.000000 0.272727 0.090909 0.000000 0.272727 0.272727 0.000000 0.272727 0.454545 0.000000 0.272727 0.636364 0.000000 0.272727 0.818182 0.000000 0.454545 -0.818182 0.000000 0.454545 -0.636364 0.000000 0.454545 -0.454545 0.000000 0.454545 -0.272727 0.000000 0.454545 -0.090909 0.000000 0.454545 0.090909 0.000000 0.454545 0.272727 0.000000 0.454545 0.454545 0.000000 0.454545 0.636364 0.000000 0.454545 0.818182 0.000000 0.636364 -0.818182 0.000000 0.636364 -0.636364 0.000000 0.636364 -0.454545 0.000000 0.636364 -0.272727 0.000000 0.636364 -0.090909 0.000000 0.636364 0.090909 0.000000 0.636364 0.272727 0.000000 0.636364 0.454545 0.000000 0.636364 0.636364 0.000000 0.636364 0.818182 0.000000 0.818182 -0.818182 0.000000 0.818182 -0.636364 0.000000 0.818182 -0.454545 0.000000 0.818182 -0.272727 0.000000 0.818182 -0.090909 0.000000 0.818182 0.090909 0.000000 0.818182 0.272727 0.000000 0.818182 0.454545 0.000000 0.818182 0.636364 0.000000 0.818182 0.818182 0.000000 
</DataArray>
</Points>
</Piece>
</StructuredGrid>
</VTKFile>
