<VTKFile type="StructuredGrid" version="1.0" byte_order="LittleEndian" header_type="UInt64">
<StructuredGrid WholeExtent="0 9 0 9 0 0">
<Piece Extent="0 9 0 9 0 0">
<PointData Scalars="residual">
<DataArray type="Float64" Name="residual" format="ascii">
-4.2566295153460658e-05 -8.0666128252126004e-06 6.7031957325315757e-06 1.8730881122839844e-05 3.4049275558195157e-05 4.6071072700355244e-05 1.9164485675734122e-05 3.3001355547595005e-06 -1.9511356037489689e-05 -3.5390014457670899e-05 -6.6856846431678774e-06 -1.1134783892543615e-04 -1.5896340150258273e-04 -7.9874464885781524e-05 -1.6956455189055114e-05 -1.2480975474805575e-05 -8.2361160384656490e-05 -1.3854306130016382e-04 -9.2433928844566421e-05 -2.0074037330024622e-05 3.9798828371088481e-06 -1.4361352938707141e-04 -2.3601451733150716e-04 -1.4118530012312974e-04 -3.4255923831157803e-05 -4.8990932491711076e-05 -1.4328250183720352e-04 -2.4613751043196710e-04 -1.5654971509511915e-04 1.3927110544623535e-05 2.1498128413087458e-05 -8.1319256159684446e-05 -1.4994490959698101e-04 -7.1698162405698512e-05 -5.1522347132605673e-07 1.8906521688502251e-06 -6.4533533873533354e-05 -1.4913686761397482e-04 -7.5709534507467126e-05 1.3941046755352690e-05 4.3265427111326355e-05 -1.9704902963936857e-05 -3.9033480278304056e-05 7.2854587555475428e-06 5.6502667098240738e-05 5.0283921222881757e-05 9.2171881234358322e-06 -4.0818246688065565e-05 -1.1301442686991250e-05 3.8566003785115528e-05 3.8519775729022347e-05 -1.6556872795974419e-05 -4.6371768514505418e-05 5.3608205193740599e-06 4.6635297797727616e-05 5.6858607778220889e-05 -2.1053564347606885e-06 -5.0069292846849009e-05 -1.4513456051157628e-05 3.8857721032081695e-05 2.4379577100714918e-05 -8.4371650342795861e-05 -1.3900955613000299e-04 -6.8834037032452014e-05 9.8748635913546712e-06 1.4110234704840102e-06 -7.2689532856034383e-05 -1.4193209337096200e-04 -8.8912044461435420e-05 2.1368095266067946e-05 1.1108111981440738e-05 -1.4393534644572409e-04 -2.4585975490218261e-04 -1.3460666847515783e-04 -4.1399392066323107e-05 -3.6237703773128044e-05 -1.3671022664061422e-04 -2.3382180130067983e-04 -1.5929772530709789e-04 6.2123442147394084e-06 -2.0926583219903899e-05 -1.0761292241038314e-04 -1.5114299164073084e-04 -7.6800262780647201e-05 -1.8981577264356488e-05 -1.4756412714601527e-05 -8.9354508499579072e-05 -1.4147414637001761e-04 -1.0275211444495450e-04 -9.8715585799213044e-06 -3.5910289826432060e-05 -1.7242162521323868e-05 5.4124610288292570e-06 2.2066742995751568e-05 4.2333811802512450e-05 3.0180614001813896e-05 2.9813438667926589e-05 1.3039357997015558e-05 -2.0626218326531918e-05 -4.3481219184749072e-05 
</DataArray>
</PointData>
<CellData></CellData>
<Points>
<DataArray type="Float64" Name="Points" NumberOfComponents="3" format="ascii">
-0.818182 -0.818182 0.000000 -0.818182 -0.636364 0.000000 -0.818182 -0.454545 0.000000 -0.818182 -0.272727 0.000000 -0.818182 -0.090909 0.000000 -0.818182 0.090909 0.000000 -0.818182 0.272727 0.000000 -0.818182 0.454545 0.000000 -0.818182 0.636364 0.000000 -0.818182 0.818182 0.000000 -0.636364 -0.818182 0.000000 -0.636364 -0.636364 0.000000 -0.636364 -0.454545 0.000000 -0.636364 -0.272727 0.000000 -0.636364 -0.090909 0.000000 -0.636364 0.090909 0.000000 -0.636364 0.272727 0.000000 -0.636364 0.454545 0.000000 -0.636364 0.636364 0.000000 -0.636364 0.818182 0.000000 -0.454545 -0.818182 0.000000 -0.454545 -0.636364 0.000000 -0.454545 -0.454545 0.000000 -0.454545 -0.272727 0.000000 -0.454545 -0.090909 0.000000 -0.454545 0.090909 0.000000 -0.454545 0.272727 0.000000 -0.454545 0.454545 0.000000 -0.454545 0.636364 0.000000 -0.454545 0.818182 0.000000 -0.272727 -0.818182 0.000000 -0.272727 -0.636364 0.000000 -0.272727 -0.454545 0.000000 -0.272727 -0.272727 0.000000 -0.272727 -0.090909 0.000000 -0.272727 0.090909 0.000000 -0.272727 0.272727 0.000000 -0.272727 0.454545 0.000000 -0.272727 0.636364 0.000000 -0.272727 0.818182 0.000000 -0.090909 -0.818182 0.000000 -0.090909 -0.636364 0.000000 -0.090909 -0.454545 0.000000 -0.090909 -0.272727 0.000000 -0.090909 -0.090909 0.000000 -0.090909 0.090909 0.000000 -0.090909 0.272727 0.000000 -0.090909 0.454545 0.000000 -0.090909 0.636364 0.000000 -0.090909 0.818182 0.000000 0.090909 -0.818182 0.000000 0.090909 -0.636364 0.000000 0.090909 -0.454545 0.000000 0.090909 -0.272727 0.000000 0.090909 -0.090909 0.000000 0.090909 0.090909 0.000000 0.090909 0.272727 0.000000 0.090909 0.454545 0.000000 0.090909 0.636364 0.000000 0.090909 0.818182 0.000000 0.272727 -0.818182 0.000000 0.272727 -0.636364 0.000000 0.272727 -0.454545 0.000000 0.272727 -0.272727 0.000000 0.272727 -0.090909 0.000000 0.272727 0.090909 0.000000 0.272727 0.272727 0.000000 0.272727 0.454545 0.000000 0.272727 0.636364 0.000000 0.272727 0.818182 0.000000 0.454545 -0.818182 0.000000 0.454545 -0.636364 0.000000 0.454545 -0.454545 0.000000 0.454545 -0.272727 0.000000 0.454545 -0.090909 0.000000 0.454545 0.090909 0.000000 0.454545 0.272727 0.000000 0.454545 0.454545 0.000000 0.454545 0.636364 0.000000 0.454545 0.818182 0.000000 0.636364 -0.818182 0.000000 0.636364 -0.636364 0.000000 0.636364 -0.454545 0.000000 0.636364 -0.272727 0.000000 0.636364 -0.090909 0.000000 0.636364 0.090909 0.000000 0.636364 0.272727 0.000000 0.636364 0.454545 0.000000 0.636364 0.636364 0.000000 0.636364 0.818182 0.000000 0.818182 -0.818182 0.000000 0.818182 -0.636364 0.000000 0.818182 -0.454545 0.000000 0.818182 -0.272727 0.000000 0.818182 -0.090909 0.000000 0.818182 0.090909 0.000000 0.818182 0.272727 0.000000 0.818182 0.454545 0.000000 0.818182 0.636364 0.000000 0.818182 0.818182 0.000000 
</DataArray>
</Points>
</Piece>
</StructuredGrid>
</VTKFile>
