<VTKFile type="StructuredGrid" version="1.0" byte_order="LittleEndian" header_type="UInt64">
<StructuredGrid WholeExtent="0 9 0 9 0 0">
<Piece Extent="0 9 0 9 0 0">
<PointData Scalars="residual">
<DataArray type="Float64" Name="residual" format="ascii">
6.3575517633038909e-04 2.7540958962876455e-04 2.4089877804272554e-05 6.5445046890920747e-05 1.0489074472101647e-04 9.7951352708899181e-05 6.7230232681790222e-05 1.6989763650144228e-05 2.8545583914535823e-04 6.2902801211836600e-04 2.8751644335606478e-04 4.0690623411956083e-05 -1.1381036130151193e-04 -5.8571471508352645e-05 -5.6844185503382634e-06 -6.3290683779527817e-06 -5.3562760973319351e-05 -1.1136547457560667e-04 4.7246352214293241e-05 2.8426681943264070e-04 1.5187505053901318e-05 -1.1201066963154949e-04 -2.0087115825992235e-04 -1.1768853295713580e-04 -5.4819804176080116e-05 -6.0848735650903540e-05 -1.2053231958880552e-04 -2.0289263014802500e-04 -1.1141786080669453e-04 2.2821348419525128e-05 7.1622164373909801e-05 -6.6753754130928836e-05 -1.3448475787178338e-04 -2.5075707126010795e-05 8.8801766860480830e-05 7.3890955262561828e-05 -2.8820638548356266e-05 -1.2403373441448946e-04 -5.7967434600818789e-05 5.9805878727341340e-05 1.0467011849632632e-04 -1.4925113569328363e-05 -4.6992942568211023e-05 7.8598938047996086e-05 2.2405034372388610e-04 2.1532932006654293e-04 8.0232215126865500e-05 -5.3661110712403641e-05 -2.3222473284590056e-06 9.9169420515343980e-05 1.0014995716019475e-04 -1.4707079412412877e-05 -5.3406239494899373e-05 7.7185551829802787e-05 2.2036273236250223e-04 2.2661149246510845e-04 8.1099714984465138e-05 -6.1423634495944186e-05 -2.1213289498558821e-06 1.0394613532250466e-04 6.4409974958306443e-05 -6.5679674999124214e-05 -1.2281176032229927e-04 -1.6511737912105855e-05 7.7292884560761083e-05 7.7888436329205321e-05 -1.8101004230954530e-05 -1.3151743698872108e-04 -6.3584609637267961e-05 5.1999326811492420e-05 2.8363037824780633e-05 -1.1162163747088869e-04 -1.9953679535111434e-04 -1.2826032670740944e-04 -5.3690266713343586e-05 -5.6223678360931006e-05 -1.1685566160416980e-04 -2.0454606756714405e-04 -1.1161360789705126e-04 2.6633393481811235e-05 2.7433620433680011e-04 5.6368325795138480e-05 -1.0818403895271464e-04 -6.8305702240173622e-05 -1.2384678116637599e-05 -6.2756181841005653e-06 -5.5571780534693872e-05 -1.0643072306845908e-04 4.9359693549284964e-05 2.7911874691495010e-04 6.3559928914984094e-04 2.7660865021306115e-04 2.2906179229610808e-05 5.9968366408179492e-05 9.7153966564589647e-05 1.1054954773560095e-04 5.8817780974643533e-05 2.0984958144489030e-05 2.8509415816415067e-04 6.2733950884921990e-04 
</DataArray>
</PointData>
<CellData></CellData>
<Points>
<DataArray type="Float64" Name="Points" NumberOfComponents="3" format="ascii">
-0.818182 -0.818182 0.000000 -0.818182 -0.636364 0.000000 -0.818182 -0.454545 0.000000 -0.818182 -0.272727 0.000000 -0.818182 -0.090909 0.000000 -0.818182 0.090909 0.000000 -0.818182 0.272727 0.000000 -0.818182 0.454545 0.000000 -0.818182 0.636364 0.000000 -0.818182 0.818182 0.000000 -0.636364 -0.818182 0.000000 -0.636364 -0.636364 0.000000 -0.636364 -0.454545 0.000000 -0.636364 -0.272727 0.000000 -0.636364 -0.090909 0.000000 -0.636364 0.090909 0.000000 -0.636364 0.272727 0.000000 -0.636364 0.454545 0.000000 -0.636364 0.636364 0.000000 -0.636364 0.818182 0.000000 -0.454545 -0.818182 0.000000 -0.454545 -0.636364 0.000000 -0.454545 -0.454545 0.000000 -0.454545 -0.272727 0.000000 -0.454545 -0.090909 0.000000 -0.454545 0.090909 0.000000 -0.454545 0.272727 0.000000 -0.454545 0.454545 0.000000 -0.454545 0.636364 0.000000 -0.454545 0.818182 0.000000 -0.272727 -0.818182 0.000000 -0.272727 -0.636364 0.000000 -0.272727 -0.454545 0.000000 -0.272727 -0.272727 0.000000 -0.272727 -0.090909 0.000000 -0.272727 0.090909 0.000000 -0.272727 0.272727 0.000000 -0.272727 0.454545 0.000000 -0.272727 0.636364 0.000000 -0.272727 0.818182 0.000000 -0.090909 -0.818182 0.000000 -0.090909 -0.636364 0.000000 -0.090909 -0.454545 0.000000 -0.090909 -0.272727 0.000000 -0.090909 -0.090909 0.000000 -0.090909 0.090909 0.000000 -0.090909 0.272727 0.000000 -0.090909 0.454545 0.000000 -0.090909 0.636364 0.000000 -0.090909 0.818182 0.000000 0.090909 -0.818182 0.000000 0.090909 -0.636364 0.000000 0.090909 -0.454545 0.000000 0.090909 -0.272727 0.000000 0.090909 -0.090909 0.000000 0.090909 0.090909 0.000000 0.090909 0.272727 0.000000 0.090909 0.454545 0.000000 0.090909 0.636364 0.000000 0.090909 0.818182 0.000000 0.272727 -0.818182 0.000000 0.272727 -0.636364 0.000000 0.272727 -0.454545 0.000000 0.272727 -0.272727 0.000000 0.272727 -0.090909 0.000000 0.272727 0.090909 0.000000 0.272727 0.272727 0.000000 0.272727 0.454545 0.000000 0.272727 0.636364 0.000000 0.272727 0.818182 0.000000 0.454545 -0.818182 0.000000 0.454545 -0.636364 0.000000 0.454545 -0.454545 0.000000 0.454545 -0.272727 0.000000 0.454545 -0.090909 0.000000 0.454545 0.090909 0.000000 0.454545 0.272727 0.000000 0.454545 0.454545 0.000000 0.454545 0.636364 0.000000 0.454545 0.818182 0.000000 0.636364 -0.818182 0.000000 0.636364 -0.636364 0.000000 0.636364 -0.454545 0.000000 0.636364 -0.272727 0.000000 0.636364 -0.090909 0.000000 0.636364 0.090909 0.000000 0.636364 0.272727 0.000000 0.636364 0.454545 0.000000 0.636364 0.636364 0.000000 0.636364 0.818182 0.000000 0.818182 -0.818182 0.000000 0.818182 -0.636364 0.000000 0.818182 -0.454545 0.000000 0.818182 -0.272727 0.000000 0.818182 -0.090909 0.000000 0.818182 0.090909 0.000000 0.818182 0.272727 0.000000 0.818182 0.454545 0.000000 0.818182 0.636364 0.000000 0.818182 0.818182 0.000000 
</DataArray>
</Points>
</Piece>
</StructuredGrid>
</VTKFile>
