<VTKFile type="StructuredGrid" version="1.0" byte_order="LittleEndian" header_type="UInt64">
<StructuredGrid WholeExtent="0 9 0 9 0 0">
<Piece Extent="0 9 0 9 0 0">
<PointData Scalars="residual">
<DataArray type="Float64" Name="residual" format="ascii">
-1.6961022731692174e-04 7.9517083432385002e-05 2.1039760599448482e-04 -1.7519855330040864e-05 -2.6221054801038590e-04 -2.6136701857096267e-04 -1.7151991350312576e-05 2.0826854708630091e-04 8.7461240471154757e-05 -1.7277074780419721e-04 7.6657080282566126e-05 7.4833135693571674e-05 3.5751910965728731e-05 -6.3131207190956357e-05 -1.4586228009002070e-04 -1.4835136600229934e-04 -4.8042539776376250e-05 3.2122236061618917e-05 6.8609144823735327e-05 8.3618523889201699e-05 2.1743824541694580e-04 2.7898665004402398e-05 -1.0224756960811737e-04 -7.3873925356201728e-05 -4.0369508323853664e-05 -3.1609774205547045e-05 -7.6718483749370348e-05 -9.6072596470576921e-05 3.7908158409800594e-05 2.1444105587796036e-04 -2.9216717009377530e-05 -5.2716887259275994e-05 -6.7661835505109652e-05 -4.2796753778762825e-05 5.0585928524152224e-07 -6.0027297427329984e-06 -3.1645585131820017e-05 -7.9953305009107176e-05 -5.4778393946250739e-05 -1.9564919569906025e-05 -2.7032411650066909e-04 -1.4198061606509813e-04 -3.3439490226995841e-05 -1.4213335461019105e-07 2.7536822143822519e-05 2.6630380970385156e-05 -1.7889184933499169e-06 -3.5856190762779613e-05 -1.4735178077419052e-04 -2.6191943480520334e-04 -2.5819534818559680e-04 -1.4395375739621394e-04 -4.4041091250186098e-05 -1.0271696679031370e-05 3.8720466358784823e-05 2.6070557921706664e-05 1.1147207095493078e-07 -4.4495812492816381e-05 -1.3511899322358155e-04 -2.6934495815958241e-04 -2.0285434890185590e-05 -5.9653329469611105e-05 -6.9497797389166810e-05 -2.7277239162478914e-05 -1.9733541992434517e-06 -8.0135710023732792e-06 -4.4413031846841228e-05 -6.6024331339014850e-05 -6.5144214965414879e-05 -3.0708350355409565e-05 2.1489083972204941e-04 2.9305838425763148e-05 -1.0006970460564417e-04 -6.1389085809463936e-05 -4.4428051704762869e-05 -3.6520568715664795e-05 -7.8962785782657821e-05 -9.1611192447464337e-05 2.9321885563022773e-05 2.1991185665892060e-04 8.9597814452486210e-05 7.3641972539996610e-05 3.2430318707933267e-05 -5.7775028651825197e-05 -1.3507092385810909e-04 -1.3908811803533400e-04 -5.1119407583217688e-05 3.2989381867146172e-05 6.3338007478282339e-05 7.8779171101424437e-05 -1.7571656034387462e-04 7.9200442462925430e-05 2.2243397947707081e-04 -2.4692857031468132e-05 -2.7049421619584121e-04 -2.6213761369391422e-04 -1.8361958813179619e-05 2.0762182754111968e-04 9.2761903614727546e-05 -1.7953180150645623e-04 
</DataArray>
</PointData>
<CellData></CellData>
<Points>
<DataArray type="Float64" Name="Points" NumberOfComponents="3" format="ascii">
-0.818182 -0.818182 0.000000 -0.818182 -0.636364 0.000000 -0.818182 -0.454545 0.000000 -0.818182 -0.272727 0.000000 -0.818182 -0.090909 0.000000 -0.818182 0.090909 0.000000 -0.818182 0.272727 0.000000 -0.818182 0.454545 0.000000 -0.818182 0.636364 0.000000 -0.818182 0.818182 0.000000 -0.636364 -0.818182 0.000000 -0.636364 -0.636364 0.000000 -0.636364 -0.454545 0.000000 -0.636364 -0.272727 0.000000 -0.636364 -0.090909 0.000000 -0.636364 0.090909 0.000000 -0.636364 0.272727 0.000000 -0.636364 0.454545 0.000000 -0.636364 0.636364 0.000000 -0.636364 0.818182 0.000000 -0.454545 -0.818182 0.000000 -0.454545 -0.636364 0.000000 -0.454545 -0.454545 0.000000 -0.454545 -0.272727 0.000000 -0.454545 -0.090909 0.000000 -0.454545 0.090909 0.000000 -0.454545 0.272727 0.000000 -0.454545 0.454545 0.000000 -0.454545 0.636364 0.000000 -0.454545 0.818182 0.000000 -0.272727 -0.818182 0.000000 -0.272727 -0.636364 0.000000 -0.272727 -0.454545 0.000000 -0.272727 -0.272727 0.000000 -0.272727 -0.090909 0.000000 -0.272727 0.090909 0.000000 -0.272727 0.272727 0.000000 -0.272727 0.454545 0.000000 -0.272727 0.636364 0.000000 -0.272727 0.818182 0.000000 -0.090909 -0.818182 0.000000 -0.090909 -0.636364 0.000000 -0.090909 -0.454545 0.000000 -0.090909 -0.272727 0.000000 -0.090909 -0.090909 0.000000 -0.090909 0.090909 0.000000 -0.090909 0.272727 0.000000 -0.090909 0.454545 0.000000 -0.090909 0.636364 0.000000 -0.090909 0.818182 0.000000 0.090909 -0.818182 0.000000 0.090909 -0.636364 0.000000 0.090909 -0.454545 0.000000 0.090909 -0.272727 0.000000 0.090909 -0.090909 0.000000 0.090909 0.090909 0.000000 0.090909 0.272727 0.000000 0.090909 0.454545 0.000000 0.090909 0.636364 0.000000 0.090909 0.818182 0.000000 0.272727 -0.818182 0.000000 0.272727 -0.636364 0.000000 0.272727 -0.454545 0.000000 0.272727 -0.272727 0.000000 0.272727 -0.090909 0.000000 0.272727 0.090909 0.000000 0.272727 0.272727 0.000000 0.272727 0.454545 0.000000 0.272727 0.636364 0.000000 0.272727 0.818182 0.000000 0.454545 -0.818182 0.000000 0.454545 -0.636364 0.000000 0.454545 -0.454545 0.000000 0.454545 -0.272727 0.000000 0.454545 -0.090909 0.000000 0.454545 0.090909 0.000000 0.454545 0.272727 0.000000 0.454545 0.454545 0.000000 0.454545 0.636364 0.000000 0.454545 0.818182 0.000000 0.636364 -0.818182 0.000000 0.636364 -0.636364 0.000000 0.636364 -0.454545 0.000000 0.636364 -0.272727 0.000000 0.636364 -0.090909 0.000000 0.636364 0.090909 0.000000 0.636364 0.272727 0.000000 0.636364 0.454545 0.000000 0.636364 0.636364 0.000000 0.636364 0.818182 0.000000 0.818182 -0.818182 0.000000 0.818182 -0.636364 0.000000 0.818182 -0.454545 0.000000 0.818182 -0.272727 0.000000 0.818182 -0.090909 0.000000 0.818182 0.090909 0.000000 0.818182 0.272727 0.000000 0.818182 0.454545 0.000000 0.818182 0.636364 0.000000 0.818182 0.818182 0.000000 
</DataArray>
</Points>
</Piece>
</StructuredGrid>
</VTKFile>
