<VTKFile type="StructuredGrid" version="1.0" byte_order="LittleEndian" header_type="UInt64">
<StructuredGrid WholeExtent="0 9 0 9 0 0">
<Piece Extent="0 9 0 9 0 0">
<PointData Scalars="residual">
<DataArray type="Float64" Name="residual" format="ascii">
-2.1391533055278075e-04 -6.7837128451073841e-05 4.1657815632791841e-05 6.5144817488630227e-06 -2.9735160614417083e-06 -1.8713797752091879e-05 2.3471842960679293e-05 4.1143802414227507e-05 -7.1430355320163848e-05 -2.1113971686142607e-04 -6.8073435465761632e-05 -5.2403552208066945e-05 -3.9466964364489460e-05 -6.8177772959627722e-05 -8.1828047168510352e-05 -8.6956864550528402e-05 -6.6632428846348686e-05 -4.6192946509386948e-05 -6.2763615765912620e-05 -7.1740353470553866e-05 4.0550988136624048e-05 -5.5424966866850570e-05 -1.2269379163109759e-04 -1.2316304052851362e-04 -1.2483012605754313e-04 -1.3520606357944175e-04 -1.2815183538039720e-04 -1.0777514534447219e-04 -3.9447487581885203e-05 4.3993756323752742e-05 1.4266683869342857e-05 -6.3787073420587363e-05 -1.2343787204865952e-04 -9.6956164895749437e-05 -6.7871464747550937e-05 -6.6904198791842805e-05 -8.7236415820033004e-05 -1.3007420627554828e-04 -6.4551162847364431e-05 1.2103989168129638e-05 -1.8035019126894092e-05 -9.3288804747041106e-05 -1.3448768483912462e-04 -6.7835281735581510e-05 2.3565808168575161e-06 6.1742024953098662e-07 -7.5812741887365531e-05 -1.3298595895111596e-04 -8.7997573089798956e-05 -1.3925685875343201e-05 -1.5115131420375891e-05 -8.9207133760577269e-05 -1.3884113518166166e-04 -6.0423286955312364e-05 7.9018193444198304e-06 8.6408328459526562e-06 -6.8579446624829170e-05 -1.3599187447102968e-04 -8.6920881019843764e-05 -1.5742721718343955e-05 1.8005592650368642e-05 -6.4697928347531505e-05 -1.1709129505073964e-04 -1.0079955279340604e-04 -6.4265752403471106e-05 -6.3381694513312686e-05 -9.0503957740413477e-05 -1.1646845026192475e-04 -7.1333260749668198e-05 2.0141005565883253e-05 4.1550515060892815e-05 -4.5572888651480327e-05 -1.1356445712989559e-04 -1.1980797435320271e-04 -1.3733801918374561e-04 -1.3148272306825592e-04 -1.2888041381921246e-04 -1.1792570492689209e-04 -4.3763368270659242e-05 3.7907497975497861e-05 -7.0815744200519899e-05 -5.3999002724359688e-05 -5.2858552734708943e-05 -6.7170494282443177e-05 -8.6810935810787034e-05 -9.5643258121975473e-05 -7.4760979086301721e-05 -4.6215974282786884e-05 -5.8264951970573263e-05 -7.1222489222301684e-05 -2.0456355868494081e-04 -5.9689112606517783e-05 3.7695589008977792e-05 1.9277916909451846e-05 -8.5634875491083506e-06 -1.2619401492351690e-06 9.4387059166650342e-06 3.8589940101824843e-05 -5.9096424413505010e-05 -2.1702874649615414e-04 
</DataArray>
</PointData>
<CellData></CellData>
<Points>
<DataArray type="Float64" Name="Points" NumberOfComponents="3" format="ascii">
-0.818182 -0.818182 0.000000 -0.818182 -0.636364 0.000000 -0.818182 -0.454545 0.000000 -0.818182 -0.272727 0.000000 -0.818182 -0.090909 0.000000 -0.818182 0.090909 0.000000 -0.818182 0.272727 0.000000 -0.818182 0.454545 0.000000 -0.818182 0.636364 0.000000 -0.818182 0.818182 0.000000 -0.636364 -0.818182 0.000000 -0.636364 -0.636364 0.000000 -0.636364 -0.454545 0.000000 -0.636364 -0.272727 0.000000 -0.636364 -0.090909 0.000000 -0.636364 0.090909 0.000000 -0.636364 0.272727 0.000000 -0.636364 0.454545 0.000000 -0.636364 0.636364 0.000000 -0.636364 0.818182 0.000000 -0.454545 -0.818182 0.000000 -0.454545 -0.636364 0.000000 -0.454545 -0.454545 0.000000 -0.454545 -0.272727 0.000000 -0.454545 -0.090909 0.000000 -0.454545 0.090909 0.000000 -0.454545 0.272727 0.000000 -0.454545 0.454545 0.000000 -0.454545 0.636364 0.000000 -0.454545 0.818182 0.000000 -0.272727 -0.818182 0.000000 -0.272727 -0.636364 0.000000 -0.272727 -0.454545 0.000000 -0.272727 -0.272727 0.000000 -0.272727 -0.090909 0.000000 -0.272727 0.090909 0.000000 -0.272727 0.272727 0.000000 -0.272727 0.454545 0.000000 -0.272727 0.636364 0.000000 -0.272727 0.818182 0.000000 -0.090909 -0.818182 0.000000 -0.090909 -0.636364 0.000000 -0.090909 -0.454545 0.000000 -0.090909 -0.272727 0.000000 -0.090909 -0.090909 0.000000 -0.090909 0.090909 0.000000 -0.090909 0.272727 0.000000 -0.090909 0.454545 0.000000 -0.090909 0.636364 0.000000 -0.090909 0.818182 0.000000 0.090909 -0.818182 0.000000 0.090909 -0.636364 0.000000 0.090909 -0.454545 0.000000 0.090909 -0.272727 0.000000 0.090909 -0.090909 0.000000 0.090909 0.090909 0.000000 0.090909 0.272727 0.000000 0.090909 0.454545 0.000000 0.090909 0.636364 0.000000 0.090909 0.818182 0.000000 0.272727 -0.818182 0.000000 0.272727 -0.636364 0.000000 0.272727 -0.454545 0.000000 0.272727 -0.272727 0.000000 0.272727 -0.090909 0.000000 0.272727 0.090909 0.000000 0.272727 0.272727 0.000000 0.272727 0.454545 0.000000 0.272727 0.636364 0.000000 0.272727 0.818182 0.000000 0.454545 -0.818182 0.000000 0.454545 -0.636364 0.000000 0.454545 -0.454545 0.000000 0.454545 -0.272727 0.000000 0.454545 -0.090909 0.000000 0.454545 0.090909 0.000000 0.454545 0.272727 0.000000 0.454545 0.454545 0.000000 0.454545 0.636364 0.000000 0.454545 0.818182 0.000000 0.636364 -0.818182 0.000000 0.636364 -0.636364 0.000000 0.636364 -0.454545 0.000000 0.636364 -0.272727 0.000000 0.636364 -0.090909 0.000000 0.636364 0.090909 0.000000 0.636364 0.272727 0.000000 0.636364 0.454545 0.000000 0.636364 0.636364 0.000000 0.636364 0.818182 0.000000 0.818182 -0.818182 0.000000 0.818182 -0.636364 0.000000 0.818182 -0.454545 0.000000 0.818182 -0.272727 0.000000 0.818182 -0.090909 0.000000 0.818182 0.090909 0.000000 0.818182 0.272727 0.000000 0.818182 0.454545 0.000000 0.818182 0.636364 0.000000 0.818182 0.818182 0.000000 
</DataArray>
</Points>
</Piece>
</StructuredGrid>
</VTKFile>
