<VTKFile type="StructuredGrid" version="1.0" byte_order="LittleEndian" header_type="UInt64">
<StructuredGrid WholeExtent="0 9 0 9 0 0">
<Piece Extent="0 9 0 9 0 0">
<PointData Scalars="residual">
<DataArray type="Float64" Name="residual" format="ascii">
2.3148117036219740e-04 6.0145515768045624e-06 -1.2835618271195932e-04 -6.6196115395066035e-05 -2.6802189505986673e-06 -2.4695440742437264e-06 -6.8137464425731178e-05 -1.3346098002701111e-04 1.2426287906575160e-05 2.2685926898121257e-04 9.1909912322898912e-06 -5.4878781546872750e-05 -8.9973047932832319e-05 -3.3972863680662314e-05 3.4765593395764353e-05 3.5119360693589268e-05 -3.3050250958030578e-05 -9.3156547502039637e-05 -4.8033350288319027e-05 1.4183269015554702e-05 -1.2633026804097355e-04 -9.6633362726155367e-05 -4.4645486985140639e-05 6.7111088952443408e-06 5.2204020826651307e-05 5.2750334838047759e-05 6.2260946468947233e-06 -4.6255136614818020e-05 -9.0245161855196428e-05 -1.3301401882988197e-04 -7.6305458532980718e-05 -3.4469940918847256e-05 5.5582866485665537e-06 4.2493733681751855e-05 8.3169917971441173e-05 9.6360516749810238e-05 4.2384112059342186e-05 9.5199377833032027e-06 -3.9231071837306317e-05 -6.9171030152529595e-05 2.1518763893679099e-06 2.4770714774412748e-05 5.6111937693046222e-05 9.7103733025653491e-05 1.1857884759288893e-04 1.2892565054453903e-04 8.9887462901070640e-05 5.0301105321174083e-05 2.9749670632872073e-05 -4.8614446426955941e-06 -4.8262765620847407e-06 2.7998958092220142e-05 5.2990203822747030e-05 8.4493069406531458e-05 1.2514392258144167e-04 1.1392093041353484e-04 8.8708028500671283e-05 5.6932170828706205e-05 2.7123863132425333e-05 3.2189466734272934e-06 -6.0538187347314049e-05 -3.0566885053615565e-05 4.0656406931757413e-06 5.3411772298829225e-05 7.9763740043181305e-05 8.1172716880084823e-05 5.5726220211025496e-05 -1.2203821959252091e-06 -2.3466127766160264e-05 -6.5817999233476043e-05 -1.2950080996426260e-04 -9.7587948513190841e-05 -5.5757459829987701e-05 8.8416963920181536e-06 5.2256966331966793e-05 5.1463770561175487e-05 -6.9007944799573048e-07 -4.0236402305130099e-05 -9.8033419334905099e-05 -1.3392806326976547e-04 7.7983269237964607e-06 -5.0249469800109012e-05 -8.9274861477722138e-05 -2.1499096717927848e-05 3.5378317500674595e-05 3.2211805602368540e-05 -3.0007611385521934e-05 -9.5628811977385665e-05 -5.7808169007713111e-05 1.3497571312390527e-05 2.3241216565586011e-04 8.3487498462745183e-06 -1.3200873571468695e-04 -6.6884899296911372e-05 -1.8972423157688489e-07 2.4035127979831102e-06 -6.7939256994544502e-05 -1.3432613455292017e-04 1.1763072933168757e-05 2.2243211304472403e-04 
</DataArray>
</PointData>
<CellData></CellData>
<Points>
<DataArray type="Float64" Name="Points" NumberOfComponents="3" format="ascii">
-0.818182 -0.818182 0.000000 -0.818182 -0.636364 0.000000 -0.818182 -0.454545 0.000000 -0.818182 -0.272727 0.000000 -0.818182 -0.090909 0.000000 -0.818182 0.090909 0.000000 -0.818182 0.272727 0.000000 -0.818182 0.454545 0.000000 -0.818182 0.636364 0.000000 -0.818182 0.818182 0.000000 -0.636364 -0.818182 0.000000 -0.636364 -0.636364 0.000000 -0.636364 -0.454545 0.000000 -0.636364 -0.272727 0.000000 -0.636364 -0.090909 0.000000 -0.636364 0.090909 0.000000 -0.636364 0.272727 0.000000 -0.636364 0.454545 0.000000 -0.636364 0.636364 0.000000 -0.636364 0.818182 0.000000 -0.454545 -0.818182 0.000000 -0.454545 -0.636364 0.000000 -0.454545 -0.454545 0.000000 -0.454545 -0.272727 0.000000 -0.454545 -0.090909 0.000000 -0.454545 0.090909 0.000000 -0.454545 0.272727 0.000000 -0.454545 0.454545 0.000000 -0.454545 0.636364 0.000000 -0.454545 0.818182 0.000000 -0.272727 -0.818182 0.000000 -0.272727 -0.636364 0.000000 -0.272727 -0.454545 0.000000 -0.272727 -0.272727 0.000000 -0.272727 -0.090909 0.000000 -0.272727 0.090909 0.000000 -0.272727 0.272727 0.000000 -0.272727 0.454545 0.000000 -0.272727 0.636364 0.000000 -0.272727 0.818182 0.000000 -0.090909 -0.818182 0.000000 -0.090909 -0.636364 0.000000 -0.090909 -0.454545 0.000000 -0.090909 -0.272727 0.000000 -0.090909 -0.090909 0.000000 -0.090909 0.090909 0.000000 -0.090909 0.272727 0.000000 -0.090909 0.454545 0.000000 -0.090909 0.636364 0.000000 -0.090909 0.818182 0.000000 0.090909 -0.818182 0.000000 0.090909 -0.636364 0.000000 0.090909 -0.454545 0.000000 0.090909 -0.272727 0.000000 0.090909 -0.090909 0.000000 0.090909 0.090909 0.000000 0.090909 0.272727 0.000000 0.090909 0.454545 0.000000 0.090909 0.636364 0.000000 0.090909 0.818182 0.000000 0.272727 -0.818182 0.000000 0.272727 -0.636364 0.000000 0.272727 -0.454545 0.000000 0.272727 -0.272727 0.000000 0.272727 -0.090909 0.000000 0.272727 0.090909 0.000000 0.272727 0.272727 0.000000 0.272727 0.454545 0.000000 0.272727 0.636364 0.000000 0.272727 0.818182 0.000000 0.454545 -0.818182 0.000000 0.454545 -0.636364 0.000000 0.454545 -0.454545 0.000000 0.454545 -0.272727 0.000000 0.454545 -0.090909 0.000000 0.454545 0.090909 0.000000 0.454545 0.272727 0.000000 0.454545 0.454545 0.000000 0.454545 0.636364 0.000000 0.454545 0.818182 0.000000 0.636364 -0.818182 0.000000 0.636364 -0.636364 0.000000 0.636364 -0.454545 0.000000 0.636364 -0.272727 0.000000 0.636364 -0.090909 0.000000 0.636364 0.090909 0.000000 0.636364 0.272727 0.000000 0.636364 0.454545 0.000000 0.636364 0.636364 0.000000 0.636364 0.818182 0.000000 0.818182 -0.818182 0.000000 0.818182 -0.636364 0.000000 0.818182 -0.454545 0.000000 0.818182 -0.272727 0.000000 0.818182 -0.090909 0.000000 0.818182 0.090909 0.000000 0.818182 0.272727 0.000000 0.818182 0.454545 0.000000 0.818182 0.636364 0.000000 0.818182 0.818182 0.000000 
</DataArray>
</Points>
</Piece>
</StructuredGrid>
</VTKFile>
