<VTKFile type="StructuredGrid" version="1.0" byte_order="LittleEndian" header_type="UInt64">
<StructuredGrid WholeExtent="0 9 0 9 0 0">
<Piece Extent="0 9 0 9 0 0">
<PointData Scalars="residual">
<DataArray type="Float64" Name="residual" format="ascii">
-4.3354188664937975e-04 -1.7885149953079590e-04 -8.8685246792605255e-06 -5.2576081364698324e-05 -9.9300818449972808e-05 -1.0260834218599538e-04 -4.2370826494966124e-05 -9.5324970805412551e-06 -1.8570737525053747e-04 -4.3634279012194372e-04 -1.8311750802868336e-04 -1.0687529012021711e-04 -4.7117569530779474e-05 8.2123782619378943e-06 4.5063326089661050e-05 4.0533000144945402e-05 1.2190046324604339e-05 -4.8436057669172181e-05 -1.1437977232148407e-04 -1.8022787431042075e-04 2.3246669339678505e-07 -3.9425546229326577e-05 -5.2082440314750109e-05 3.8155530307670826e-05 1.3547760421133564e-04 1.2587635795067087e-04 5.3230534746953780e-05 -3.7987655518077063e-05 -4.4010789883154253e-05 -3.9529762829934589e-06 -4.3862463312983879e-05 6.4030659003063567e-06 4.3801302240132657e-05 6.2995802822406795e-05 6.9016959042921336e-05 7.5680685798686781e-05 5.3441751879530308e-05 4.3536908668550395e-05 6.1106991638762431e-06 -4.2585949852826099e-05 -8.9600606134594349e-05 3.4434606111791687e-05 1.3945371834839584e-04 7.0275852420221066e-05 2.1523972345002113e-05 2.1181103319833916e-05 7.8908931232715869e-05 1.2527105018676809e-04 3.8641045666198970e-05 -9.2933701858676984e-05 -1.0067130746906593e-04 3.8365269110977700e-05 1.2844967094797002e-04 6.8757256453504285e-05 1.9067035773383603e-05 2.4556042011937562e-05 7.7350822794165601e-05 1.2473555484224328e-04 4.8536742671467792e-05 -1.0442222026394408e-04 -4.9002199696061149e-05 -4.5334439126732545e-06 5.6744018080342844e-05 5.7156218287360999e-05 7.8468560171175879e-05 6.6617555012507025e-05 6.7371055842268949e-05 3.9536503490049738e-05 -4.8121344308569430e-06 -5.5004050619859857e-05 -8.3837631677640551e-06 -3.8155223251718981e-05 -4.3708873951107605e-05 4.7098014202166111e-05 1.3656555192754268e-04 1.3437658197439041e-04 5.1033482617895108e-05 -4.8217895252829907e-05 -3.9879343346472390e-05 -6.0980146975603972e-06 -1.8165619686312355e-04 -1.0793504644283913e-04 -4.2460369424946603e-05 2.3893877977038819e-06 4.7733951398697995e-05 4.3987385151615134e-05 -2.7196612919621471e-06 -4.1445419382880183e-05 -1.0012188455090984e-04 -1.8933101428725459e-04 -4.3245711517928345e-04 -1.8773747036299887e-04 -1.0286238871367107e-05 -4.2715186419921627e-05 -9.7809134768799336e-05 -1.0312409645303264e-04 -5.1987900493826941e-05 2.3455321934862799e-06 -1.8467646166578019e-04 -4.3082872629342933e-04 
</DataArray>
</PointData>
<CellData></CellData>
<Points>
<DataArray type="Float64" Name="Points" NumberOfComponents="3" format="ascii">
-0.818182 -0.818182 0.000000 -0.818182 -0.636364 0.000000 -0.818182 -0.454545 0.000000 -0.818182 -0.272727 0.000000 -0.818182 -0.090909 0.000000 -0.818182 0.090909 0.000000 -0.818182 0.272727 0.000000 -0.818182 0.454545 0.000000 -0.818182 0.636364 0.000000 -0.818182 0.818182 0.000000 -0.636364 -0.818182 0.000000 -0.636364 -0.636364 0.000000 -0.636364 -0.454545 0.000000 -0.636364 -0.272727 0.000000 -0.636364 -0.090909 0.000000 -0.636364 0.090909 0.000000 -0.636364 0.272727 0.000000 -0.636364 0.454545 0.000000 -0.636364 0.636364 0.000000 -0.636364 0.818182 0.000000 -0.454545 -0.818182 0.000000 -0.454545 -0.636364 0.000000 -0.454545 -0.454545 0.000000 -0.454545 -0.272727 0.000000 -0.454545 -0.090909 0.000000 -0.454545 0.090909 0.000000 -0.454545 0.272727 0.000000 -0.454545 0.454545 0.000000 -0.454545 0.636364 0.000000 -0.454545 0.818182 0.000000 -0.272727 -0.818182 0.000000 -0.272727 -0.636364 0.000000 -0.272727 -0.454545 0.000000 -0.272727 -0.272727 0.000000 -0.272727 -0.090909 0.000000 -0.272727 0.090909 0.000000 -0.272727 0.272727 0.000000 -0.272727 0.454545 0.000000 -0.272727 0.636364 0.000000 -0.272727 0.818182 0.000000 -0.090909 -0.818182 0.000000 -0.090909 -0.636364 0.000000 -0.090909 -0.454545 0.000000 -0.090909 -0.272727 0.000000 -0.090909 -0.090909 0.000000 -0.090909 0.090909 0.000000 -0.090909 0.272727 0.000000 -0.090909 0.454545 0.000000 -0.090909 0.636364 0.000000 -0.090909 0.818182 0.000000 0.090909 -0.818182 0.000000 0.090909 -0.636364 0.000000 0.090909 -0.454545 0.000000 0.090909 -0.272727 0.000000 0.090909 -0.090909 0.000000 0.090909 0.090909 0.000000 0.090909 0.272727 0.000000 0.090909 0.454545 0.000000 0.090909 0.636364 0.000000 0.090909 0.818182 0.000000 0.272727 -0.818182 0.000000 0.272727 -0.636364 0.000000 0.272727 -0.454545 0.000000 0.272727 -0.272727 0.000000 0.272727 -0.090909 0.000000 0.272727 0.090909 0.000000 0.272727 0.272727 0.000000 0.272727 0.454545 0.000000 0.272727 0.636364 0.000000 0.272727 0.818182 0.000000 0.454545 -0.818182 0.000000 0.454545 -0.636364 0.000000 0.454545 -0.454545 0.000000 0.454545 -0.272727 0.000000 0.454545 -0.090909 0.000000 0.454545 0.090909 0.000000 0.454545 0.272727 0.000000 0.454545 0.454545 0.000000 0.454545 0.636364 0.000000 0.454545 0.818182 0.000000 0.636364 -0.818182 0.000000 0.636364 -0.636364 0.000000 0.636364 -0.454545 0.000000 0.636364 -0.272727 0.000000 0.636364 -0.090909 0.000000 0.636364 0.090909 0.000000 0.636364 0.272727 0.000000 0.636364 0.454545 0.000000 0.636364 0.636364 0.000000 0.636364 0.818182 0.000000 0.818182 -0.818182 0.000000 0.818182 -0.636364 0.000000 0.818182 -0.454545 0.000000 0.818182 -0.272727 0.000000 0.818182 -0.090909 0.000000 0.818182 0.090909 0.000000 0.818182 0.272727 0.000000 0.818182 0.454545 0.000000 0.818182 0.636364 0.000000 0.818182 0.818182 0.000000 
</DataArray>
</Points>
</Piece>
</StructuredGrid>
</VTKFile>
