<VTKFile type="StructuredGrid" version="1.0" byte_order="LittleEndian" header_type="UInt64">
<StructuredGrid WholeExtent="0 9 0 9 0 0">
<Piece Extent="0 9 0 9 0 0">
<PointData Scalars="residual">
<DataArray type="Float64" Name="residual" format="ascii">
-1.5158453204305823e-04 -2.2577029195942379e-04 -2.0971222638039785e-04 2.1439152598101523e-05 2.6818700517438959e-04 2.6608759385312241e-04 2.9780218749048473e-05 -2.1686582208783889e-04 -2.1260699277948162e-04 -1.6587078011126317e-04 -2.2638880568665032e-04 -5.6483018938743336e-05 5.0744960083995948e-05 9.7396216722114674e-06 -3.7616543800103770e-05 -3.1518905259727767e-05 1.0929198225725998e-05 5.3837244785407377e-05 -6.7084041476265371e-05 -2.2700383037240965e-04 -2.1365259094310342e-04 5.2540176949276637e-05 1.8981563650051058e-04 -1.2380125725496623e-05 -1.9349034841228225e-04 -2.0111051821488073e-04 -6.2444496292139370e-06 1.9865349010318549e-04 4.9740026843362976e-05 -1.9997049045901785e-04 2.2867799334419601e-05 8.4319480094662176e-06 5.4407703709603850e-06 -1.0200797701124479e-05 -1.1576098406821875e-06 -1.3984563452851088e-05 -3.1482861767616679e-07 -8.1558236189605005e-07 1.0554254225106970e-05 2.1246750419096159e-05 2.7013582855197086e-04 -3.3548791954942161e-05 -1.9726904728225355e-04 -6.5930268607389438e-06 1.7661029705918086e-04 1.8301536655541354e-04 -1.4641919642460408e-05 -2.0168722016737769e-04 -3.5249896888044085e-05 2.7307030341879425e-04 2.6070681066090720e-04 -3.3661771448544736e-05 -2.0707120938845761e-04 -7.5657363069318341e-06 1.7378256457292220e-04 1.7546110751096499e-04 -7.8783398450754834e-06 -2.0403146041974088e-04 -2.5694659473739657e-05 2.5233683526864389e-04 1.9646792796952986e-05 1.6664557520560536e-05 -1.4093536287700190e-05 -1.6523200691471313e-05 -1.3748907894970200e-06 -1.4986855457045731e-05 -1.0932882444968615e-05 -7.7784763175500239e-06 1.0672370302753503e-05 3.2063438887293839e-05 -2.0784941100436723e-04 5.4110385973226045e-05 1.9365973190322693e-04 2.1958626674925368e-06 -2.0622359514416025e-04 -1.9790068689316690e-04 7.3455699959451559e-07 1.9650847545915878e-04 4.0402008327166360e-05 -2.0470185782307717e-04 -2.1483233539269352e-04 -6.8978479240704334e-05 5.3792221469745743e-05 1.2858459073793876e-05 -3.7839658118178025e-05 -2.5449706285742869e-05 3.5054464631685198e-07 4.7319021226534946e-05 -6.7555126552643757e-05 -2.2140086260739877e-04 -1.6261493878410227e-04 -2.2034905738741849e-04 -2.0896268631404730e-04 3.2056228115909333e-05 2.7181465551792249e-04 2.6316145236229436e-04 3.2646878911528083e-05 -2.0391516137115758e-04 -2.2714756123745974e-04 -1.6385909471886353e-04 
</DataArray>
</PointData>
<CellData></CellData>
<Points>
<DataArray type="Float64" Name="Points" NumberOfComponents="3" format="ascii">
-0.818182 -0.818182 0.000000 -0.818182 -0.636364 0.000000 -0.818182 -0.454545 0.000000 -0.818182 -0.272727 0.000000 -0.818182 -0.090909 0.000000 -0.818182 0.090909 0.000000 -0.818182 0.272727 0.000000 -0.818182 0.454545 0.000000 -0.818182 0.636364 0.000000 -0.818182 0.818182 0.000000 -0.636364 -0.818182 0.000000 -0.636364 -0.636364 0.000000 -0.636364 -0.454545 0.000000 -0.636364 -0.272727 0.000000 -0.636364 -0.090909 0.000000 -0.636364 0.090909 0.000000 -0.636364 0.272727 0.000000 -0.636364 0.454545 0.000000 -0.636364 0.636364 0.000000 -0.636364 0.818182 0.000000 -0.454545 -0.818182 0.000000 -0.454545 -0.636364 0.000000 -0.454545 -0.454545 0.000000 -0.454545 -0.272727 0.000000 -0.454545 -0.090909 0.000000 -0.454545 0.090909 0.000000 -0.454545 0.272727 0.000000 -0.454545 0.454545 0.000000 -0.454545 0.636364 0.000000 -0.454545 0.818182 0.000000 -0.272727 -0.818182 0.000000 -0.272727 -0.636364 0.000000 -0.272727 -0.454545 0.000000 -0.272727 -0.272727 0.000000 -0.272727 -0.090909 0.000000 -0.272727 0.090909 0.000000 -0.272727 0.272727 0.000000 -0.272727 0.454545 0.000000 -0.272727 0.636364 0.000000 -0.272727 0.818182 0.000000 -0.090909 -0.818182 0.000000 -0.090909 -0.636364 0.000000 -0.090909 -0.454545 0.000000 -0.090909 -0.272727 0.000000 -0.090909 -0.090909 0.000000 -0.090909 0.090909 0.000000 -0.090909 0.272727 0.000000 -0.090909 0.454545 0.000000 -0.090909 0.636364 0.000000 -0.090909 0.818182 0.000000 0.090909 -0.818182 0.000000 0.090909 -0.636364 0.000000 0.090909 -0.454545 0.000000 0.090909 -0.272727 0.000000 0.090909 -0.090909 0.000000 0.090909 0.090909 0.000000 0.090909 0.272727 0.000000 0.090909 0.454545 0.000000 0.090909 0.636364 0.000000 0.090909 0.818182 0.000000 0.272727 -0.818182 0.000000 0.272727 -0.636364 0.000000 0.272727 -0.454545 0.000000 0.272727 -0.272727 0.000000 0.272727 -0.090909 0.000000 0.272727 0.090909 0.000000 0.272727 0.272727 0.000000 0.272727 0.454545 0.000000 0.272727 0.636364 0.000000 0.272727 0.818182 0.000000 0.454545 -0.818182 0.000000 0.454545 -0.636364 0.000000 0.454545 -0.454545 0.000000 0.454545 -0.272727 0.000000 0.454545 -0.090909 0.000000 0.454545 0.090909 0.000000 0.454545 0.272727 0.000000 0.454545 0.454545 0.000000 0.454545 0.636364 0.000000 0.454545 0.818182 0.000000 0.636364 -0.818182 0.000000 0.636364 -0.636364 0.000000 0.636364 -0.454545 0.000000 0.636364 -0.272727 0.000000 0.636364 -0.090909 0.000000 0.636364 0.090909 0.000000 0.636364 0.272727 0.000000 0.636364 0.454545 0.000000 0.636364 0.636364 0.000000 0.636364 0.818182 0.000000 0.818182 -0.818182 0.000000 0.818182 -0.636364 0.000000 0.818182 -0.454545 0.000000 0.818182 -0.272727 0.000000 0.818182 -0.090909 0.000000 0.818182 0.090909 0.000000 0.818182 0.272727 0.000000 0.818182 0.454545 0.000000 0.818182 0.636364 0.000000 0.818182 0.818182 0.000000 
</DataArray>
</Points>
</Piece>
</StructuredGrid>
</VTKFile>
