<VTKFile type="StructuredGrid" version="1.0" byte_order="LittleEndian" header_type="UInt64">
<StructuredGrid WholeExtent="0 9 0 9 0 0">
<Piece Extent="0 9 0 9 0 0">
<PointData Scalars="residual">
<DataArray type="Float64" Name="residual" format="ascii">
-1.1266649242997256e-03 -8.0904222802830224e-04 -5.7864627431150617e-04 -5.6949884299442241e-04 -5.6336859207717534e-04 -5.6715248101900026e-04 -5.6072268374209380e-04 -5.8169207274179346e-04 -8.1859302327549205e-04 -1.1322606284937939e-03 -8.1319800157528960e-04 -5.5405053136639223e-04 -3.6288063204835581e-04 -3.3061772624253492e-04 -3.1683382040170825e-04 -3.2145478210226629e-04 -3.2691196544739481e-04 -3.6465229896595619e-04 -5.6257270290217647e-04 -8.1201831409472708e-04 -5.6909239487737927e-04 -3.5500458159328299e-04 -2.0024422337502901e-04 -2.0157472215835519e-04 -1.9582111766043835e-04 -2.0526133107917578e-04 -1.8601661919329191e-04 -1.8534427436872267e-04 -3.5953370920818219e-04 -5.7432780793706048e-04 -5.5929242929167108e-04 -3.3183760768877579e-04 -1.9599942433496959e-04 -3.1461301286558841e-04 -4.4639994575796597e-04 -4.3972570011907835e-04 -3.2413550715909903e-04 -1.9621122349094272e-04 -3.3281032747127515e-04 -5.5968054474856387e-04 -5.5113567652119444e-04 -3.2646770570241793e-04 -1.9198595174152976e-04 -4.4521152648974247e-04 -6.7801111538499936e-04 -6.7849397948584883e-04 -4.3699843290429582e-04 -2.0686859528157211e-04 -3.2367808827907414e-04 -5.5674805999608550e-04 -5.6261149112041449e-04 -3.2289159796367387e-04 -2.0327196879693340e-04 -4.4687342370249624e-04 -6.8047268479371620e-04 -6.7508622103508616e-04 -4.3858748480161448e-04 -2.0749879730229360e-04 -3.1394818646632208e-04 -5.6847590387648639e-04 -5.6564750546899030e-04 -3.4383778328308211e-04 -1.8390261745969503e-04 -3.2088250113874756e-04 -4.3696224314100206e-04 -4.4869037162927929e-04 -3.1029903357266667e-04 -2.0049574869803258e-04 -3.4423054664355600e-04 -5.7281662194099726e-04 -5.7973419106227553e-04 -3.5550703491788772e-04 -1.9328050528627863e-04 -1.9334874449404831e-04 -1.9475633412971557e-04 -1.9659700826215936e-04 -1.8836838861619343e-04 -1.9604804748445809e-04 -3.5623123863408150e-04 -5.7766947372729464e-04 -8.1337193319848747e-04 -5.5652489622471692e-04 -3.5925846541050646e-04 -3.3661935266302533e-04 -3.1348543353719970e-04 -3.1696119502030821e-04 -3.4091598746076486e-04 -3.5688949154856486e-04 -5.4790065607587292e-04 -8.2114013629230008e-04 -1.1264248887285881e-03 -8.1862888020057048e-04 -5.8041128912572973e-04 -5.5900388947663186e-04 -5.6026149062785545e-04 -5.6548410867386656e-04 -5.6799957263586366e-04 -5.6731779986975497e-04 -8.1537990714891651e-04 -1.1250351030293523e-03 
</DataArray>
</PointData>
<CellData></CellData>
<Points>
<DataArray type="Float64" Name="Points" NumberOfComponents="3" format="ascii">
-0.818182 -0.818182 0.000000 -0.818182 -0.636364 0.000000 -0.818182 -0.454545 0.000000 -0.818182 -0.272727 0.000000 -0.818182 -0.090909 0.000000 -0.818182 0.090909 0.000000 -0.818182 0.272727 0.000000 -0.818182 0.454545 0.000000 -0.818182 0.636364 0.000000 -0.818182 0.818182 0.000000 -0.636364 -0.818182 0.000000 -0.636364 -0.636364 0.000000 -0.636364 -0.454545 0.000000 -0.636364 -0.272727 0.000000 -0.636364 -0.090909 0.000000 -0.636364 0.090909 0.000000 -0.636364 0.272727 0.000000 -0.636364 0.454545 0.000000 -0.636364 0.636364 0.000000 -0.636364 0.818182 0.000000 -0.454545 -0.818182 0.000000 -0.454545 -0.636364 0.000000 -0.454545 -0.454545 0.000000 -0.454545 -0.272727 0.000000 -0.454545 -0.090909 0.000000 -0.454545 0.090909 0.000000 -0.454545 0.272727 0.000000 -0.454545 0.454545 0.000000 -0.454545 0.636364 0.000000 -0.454545 0.818182 0.000000 -0.272727 -0.818182 0.000000 -0.272727 -0.636364 0.000000 -0.272727 -0.454545 0.000000 -0.272727 -0.272727 0.000000 -0.272727 -0.090909 0.000000 -0.272727 0.090909 0.000000 -0.272727 0.272727 0.000000 -0.272727 0.454545 0.000000 -0.272727 0.636364 0.000000 -0.272727 0.818182 0.000000 -0.090909 -0.818182 0.000000 -0.090909 -0.636364 0.000000 -0.090909 -0.454545 0.000000 -0.090909 -0.272727 0.000000 -0.090909 -0.090909 0.000000 -0.090909 0.090909 0.000000 -0.090909 0.272727 0.000000 -0.090909 0.454545 0.000000 -0.090909 0.636364 0.000000 -0.090909 0.818182 0.000000 0.090909 -0.818182 0.000000 0.090909 -0.636364 0.000000 0.090909 -0.454545 0.000000 0.090909 -0.272727 0.000000 0.090909 -0.090909 0.000000 0.090909 0.090909 0.000000 0.090909 0.272727 0.000000 0.090909 0.454545 0.000000 0.090909 0.636364 0.000000 0.090909 0.818182 0.000000 0.272727 -0.818182 0.000000 0.272727 -0.636364 0.000000 0.272727 -0.454545 0.000000 0.272727 -0.272727 0.000000 0.272727 -0.090909 0.000000 0.272727 0.090909 0.000000 0.272727 0.272727 0.000000 0.272727 0.454545 0.000000 0.272727 0.636364 0.000000 0.272727 0.818182 0.000000 0.454545 -0.818182 0.000000 0.454545 -0.636364 0.000000 0.454545 -0.454545 0.000000 0.454545 -0.272727 0.000000 0.454545 -0.090909 0.000000 0.454545 0.090909 0.000000 0.454545 0.272727 0.000000 0.454545 0.454545 0.000000 0.454545 0.636364 0.000000 0.454545 0.818182 0.000000 0.636364 -0.818182 0.000000 0.636364 -0.636364 0.000000 0.636364 -0.454545 0.000000 0.636364 -0.272727 0.000000 0.636364 -0.090909 0.000000 0.636364 0.090909 0.000000 0.636364 0.272727 0.000000 0.636364 0.454545 0.000000 0.636364 0.636364 0.000000 0.636364 0.818182 0.000000 0.818182 -0.818182 0.000000 0.818182 -0.636364 0.000000 0.818182 -0.454545 0.000000 0.818182 -0.272727 0.000000 0.818182 -0.090909 0.000000 0.818182 0.090909 0.000000 0.818182 0.272727 0.000000 0.818182 0.454545 0.000000 0.818182 0.636364 0.000000 0.818182 0.818182 0.000000 
</DataArray>
</Points>
</Piece>
</StructuredGrid>
</VTKFile>
