<VTKFile type="StructuredGrid" version="1.0" byte_order="LittleEndian" header_type="UInt64">
<StructuredGrid WholeExtent="0 9 0 9 0 0">
<Piece Extent="0 9 0 9 0 0">
<PointData Scalars="residual">
<DataArray type="Float64" Name="residual" format="ascii">
-4.8243818069113563e-04 -3.1182804129178563e-04 -2.5103828432498226e-04 -5.2376729398082023e-04 -8.1326953499247928e-04 -8.1293404298024563e-04 -5.2492354228266414e-04 -2.5570753036911753e-04 -3.0651357943047236e-04 -4.8800904879308044e-04 -3.1535542840835547e-04 9.6210866097866388e-06 1.6196520077974702e-04 -1.5161794060713184e-04 -4.4904903673638821e-04 -4.5189757875997369e-04 -1.3760764152647396e-04 1.5653824531909957e-04 2.1194276683626084e-06 -3.0873919881916701e-04 -2.4522606605985146e-04 1.5339384021511443e-04 3.8853336438020129e-04 1.1357158368002079e-04 -1.5625942423972382e-04 -1.4768815035255158e-04 1.1016164459345772e-04 3.9376603636208200e-04 1.6330206356074406e-04 -2.4707751070999172e-04 -5.3693457367955371e-04 -1.4279204179173249e-04 1.1844213477995441e-04 -4.9043906367660095e-06 -1.0981338471582891e-04 -1.1627219440187887e-04 6.3961160359487373e-06 1.0639956198557621e-04 -1.4430530780880010e-04 -5.2636859651773206e-04 -8.2309551836422506e-04 -4.4762610034072316e-04 -1.5201248364518291e-04 -1.1180291610683735e-04 -7.7211749942444723e-05 -7.7830172200903797e-05 -1.1258564450064307e-04 -1.5298908960607524e-04 -4.5179951365023098e-04 -8.1400822211290420e-04 -8.1019127076988832e-04 -4.4952710883934370e-04 -1.6306492491174537e-04 -1.2236517263780351e-04 -6.6442651897198439e-05 -7.8601874999725645e-05 -1.1050994788416521e-04 -1.6106621948162349e-04 -4.3925634437953602e-04 -8.2158857252716874e-04 -5.2567685372257190e-04 -1.4951208550458006e-04 1.1525365216578064e-04 9.3170443598872971e-06 -1.1353623670945934e-04 -1.1891867491194922e-04 -5.8454125225534254e-06 1.2201601121913583e-04 -1.5373998366769934e-04 -5.3797650848288765e-04 -2.4389607535843082e-04 1.5516167779895326e-04 3.8845702816581174e-04 1.2389295719403975e-04 -1.6239069846921139e-04 -1.5365834361338350e-04 1.0879387282103532e-04 4.0103989965764239e-04 1.5626769931441180e-04 -2.4238084522845097e-04 -3.0060599915130446e-04 8.4563600351739848e-06 1.5727480729299179e-04 -1.4786473900414883e-04 -4.4009483314781661e-04 -4.4363277030750464e-04 -1.3977134688293417e-04 1.6023015553988558e-04 -1.2225169233499866e-06 -3.1348065505685174e-04 -4.9001107322938354e-04 -3.1261197101530068e-04 -2.3888961859190247e-04 -5.3150749168527460e-04 -8.2279988743447999e-04 -8.1448054546930451e-04 -5.2528837507724233e-04 -2.5388807321161458e-04 -2.9898759914215268e-04 -4.9340627877264022e-04 
</DataArray>
</PointData>
<CellData></CellData>
<Points>
<DataArray type="Float64" Name="Points" NumberOfComponents="3" format="ascii">
-0.818182 -0.818182 0.000000 -0.818182 -0.636364 0.000000 -0.818182 -0.454545 0.000000 -0.818182 -0.272727 0.000000 -0.818182 -0.090909 0.000000 -0.818182 0.090909 0.000000 -0.818182 0.272727 0.000000 -0.818182 0.454545 0.000000 -0.818182 0.636364 0.000000 -0.818182 0.818182 0.000000 -0.636364 -0.818182 0.000000 -0.636364 -0.636364 0.000000 -0.636364 -0.454545 0.000000 -0.636364 -0.272727 0.000000 -0.636364 -0.090909 0.000000 -0.636364 0.090909 0.000000 -0.636364 0.272727 0.000000 -0.636364 0.454545 0.000000 -0.636364 0.636364 0.000000 -0.636364 0.818182 0.000000 -0.454545 -0.818182 0.000000 -0.454545 -0.636364 0.000000 -0.454545 -0.454545 0.000000 -0.454545 -0.272727 0.000000 -0.454545 -0.090909 0.000000 -0.454545 0.090909 0.000000 -0.454545 0.272727 0.000000 -0.454545 0.454545 0.000000 -0.454545 0.636364 0.000000 -0.454545 0.818182 0.000000 -0.272727 -0.818182 0.000000 -0.272727 -0.636364 0.000000 -0.272727 -0.454545 0.000000 -0.272727 -0.272727 0.000000 -0.272727 -0.090909 0.000000 -0.272727 0.090909 0.000000 -0.272727 0.272727 0.000000 -0.272727 0.454545 0.000000 -0.272727 0.636364 0.000000 -0.272727 0.818182 0.000000 -0.090909 -0.818182 0.000000 -0.090909 -0.636364 0.000000 -0.090909 -0.454545 0.000000 -0.090909 -0.272727 0.000000 -0.090909 -0.090909 0.000000 -0.090909 0.090909 0.000000 -0.090909 0.272727 0.000000 -0.090909 0.454545 0.000000 -0.090909 0.636364 0.000000 -0.090909 0.818182 0.000000 0.090909 -0.818182 0.000000 0.090909 -0.636364 0.000000 0.090909 -0.454545 0.000000 0.090909 -0.272727 0.000000 0.090909 -0.090909 0.000000 0.090909 0.090909 0.000000 0.090909 0.272727 0.000000 0.090909 0.454545 0.000000 0.090909 0.636364 0.000000 0.090909 0.818182 0.000000 0.272727 -0.818182 0.000000 0.272727 -0.636364 0.000000 0.272727 -0.454545 0.000000 0.272727 -0.272727 0.000000 0.272727 -0.090909 0.000000 0.272727 0.090909 0.000000 0.272727 0.272727 0.000000 0.272727 0.454545 0.000000 0.272727 0.636364 0.000000 0.272727 0.818182 0.000000 0.454545 -0.818182 0.000000 0.454545 -0.636364 0.000000 0.454545 -0.454545 0.000000 0.454545 -0.272727 0.000000 0.454545 -0.090909 0.000000 0.454545 0.090909 0.000000 0.454545 0.272727 0.000000 0.454545 0.454545 0.000000 0.454545 0.636364 0.000000 0.454545 0.818182 0.000000 0.636364 -0.818182 0.000000 0.636364 -0.636364 0.000000 0.636364 -0.454545 0.000000 0.636364 -0.272727 0.000000 0.636364 -0.090909 0.000000 0.636364 0.090909 0.000000 0.636364 0.272727 0.000000 0.636364 0.454545 0.000000 0.636364 0.636364 0.000000 0.636364 0.818182 0.000000 0.818182 -0.818182 0.000000 0.818182 -0.636364 0.000000 0.818182 -0.454545 0.000000 0.818182 -0.272727 0.000000 0.818182 -0.090909 0.000000 0.818182 0.090909 0.000000 0.818182 0.272727 0.000000 0.818182 0.454545 0.000000 0.818182 0.636364 0.000000 0.818182 0.818182 0.000000 
</DataArray>
</Points>
</Piece>
</StructuredGrid>
</VTKFile>
