<VTKFile type="StructuredGrid" version="1.0" byte_order="LittleEndian" header_type="UInt64">
<StructuredGrid WholeExtent="0 9 0 9 0 0">
<Piece Extent="0 9 0 9 0 0">
<PointData Scalars="residual">
<DataArray type="Float64" Name="residual" format="ascii">
3.0451755326191786e-04 3.1426378584681553e-04 3.2410935483848899e-04 3.9070043119456379e-04 4.6058221659568514e-04 4.7299968175822625e-04 3.9232103980859755e-04 3.2268463476261622e-04 3.0520757425267714e-04 3.1436550891724563e-04 3.1678025306514481e-04 -7.4790858906811648e-05 -3.1527991444094518e-04 -1.4695807658302289e-04 5.1928343548241634e-06 9.6725451198690152e-06 -1.4943207892951192e-04 -2.9483841898454754e-04 -5.6150207893483932e-05 3.0272326818152296e-04 3.2340714071979677e-04 -2.9907246352290024e-04 -7.2480777117946496e-04 -5.3865725676405848e-04 -3.4040658326505574e-04 -3.5543277075678753e-04 -5.4162799497165914e-04 -7.3638665843580101e-04 -3.1416105797821628e-04 3.3046739277896829e-04 3.9562439911446676e-04 -1.4752159095311052e-04 -5.4747711095036369e-04 -4.7356401351447870e-04 -4.0671472433550463e-04 -4.0460735614563769e-04 -4.6729490733323550e-04 -5.4816160621889293e-04 -1.4359550471003402e-04 3.8632788947099306e-04 4.7209071063139757e-04 3.3493615850385336e-06 -3.4530462913710640e-04 -3.9897428682108497e-04 -4.4974567519621977e-04 -4.5627025714101849e-04 -3.9796006566151544e-04 -3.4861857589406700e-04 1.0537959790975562e-05 4.6679940698205196e-04 4.6731970702100782e-04 6.4176383400534401e-06 -3.5272312904744037e-04 -4.0081776622154230e-04 -4.5937051515116865e-04 -4.4934800256021291e-04 -4.0888633534429033e-04 -3.5742464032747362e-04 7.8774746215676261e-06 4.6776847876630278e-04 3.9842979111783666e-04 -1.5081324537506366e-04 -5.3678239250577915e-04 -4.7045641163408290e-04 -3.9559704923613180e-04 -4.0404428076760545e-04 -4.7426208168947076e-04 -5.3962188679974876e-04 -1.5514343007972352e-04 3.9578700159356131e-04 3.3040860872369962e-04 -2.9979304764628885e-04 -7.3505406712079651e-04 -5.3167283093750236e-04 -3.4633740477239827e-04 -3.4094170191087056e-04 -5.3307434539795993e-04 -7.2184604067762875e-04 -3.1415142721639804e-04 3.2613939913550593e-04 3.0193657204466776e-04 -7.1864348227010800e-05 -3.0818660326117648e-04 -1.4366887437276821e-04 4.3248111718475687e-06 8.7614652323365211e-06 -1.5558865155949810e-04 -2.9746031043679459e-04 -6.5909836171760042e-05 3.1399264981551902e-04 3.0995298255950994e-04 3.0378681423006305e-04 3.2171027548688808e-04 3.9394279518416753e-04 4.6978810172128575e-04 4.5774389136154299e-04 4.0201645317920981e-04 3.2988210965985377e-04 3.0135147228698951e-04 3.0379647764583202e-04 
</DataArray>
</PointData>
<CellData></CellData>
<Points>
<DataArray type="Float64" Name="Points" NumberOfComponents="3" format="ascii">
-0.818182 -0.818182 0.000000 -0.818182 -0.636364 0.000000 -0.818182 -0.454545 0.000000 -0.818182 -0.272727 0.000000 -0.818182 -0.090909 0.000000 -0.818182 0.090909 0.000000 -0.818182 0.272727 0.000000 -0.818182 0.454545 0.000000 -0.818182 0.636364 0.000000 -0.818182 0.818182 0.000000 -0.636364 -0.818182 0.000000 -0.636364 -0.636364 0.000000 -0.636364 -0.454545 0.000000 -0.636364 -0.272727 0.000000 -0.636364 -0.090909 0.000000 -0.636364 0.090909 0.000000 -0.636364 0.272727 0.000000 -0.636364 0.454545 0.000000 -0.636364 0.636364 0.000000 -0.636364 0.818182 0.000000 -0.454545 -0.818182 0.000000 -0.454545 -0.636364 0.000000 -0.454545 -0.454545 0.000000 -0.454545 -0.272727 0.000000 -0.454545 -0.090909 0.000000 -0.454545 0.090909 0.000000 -0.454545 0.272727 0.000000 -0.454545 0.454545 0.000000 -0.454545 0.636364 0.000000 -0.454545 0.818182 0.000000 -0.272727 -0.818182 0.000000 -0.272727 -0.636364 0.000000 -0.272727 -0.454545 0.000000 -0.272727 -0.272727 0.000000 -0.272727 -0.090909 0.000000 -0.272727 0.090909 0.000000 -0.272727 0.272727 0.000000 -0.272727 0.454545 0.000000 -0.272727 0.636364 0.000000 -0.272727 0.818182 0.000000 -0.090909 -0.818182 0.000000 -0.090909 -0.636364 0.000000 -0.090909 -0.454545 0.000000 -0.090909 -0.272727 0.000000 -0.090909 -0.090909 0.000000 -0.090909 0.090909 0.000000 -0.090909 0.272727 0.000000 -0.090909 0.454545 0.000000 -0.090909 0.636364 0.000000 -0.090909 0.818182 0.000000 0.090909 -0.818182 0.000000 0.090909 -0.636364 0.000000 0.090909 -0.454545 0.000000 0.090909 -0.272727 0.000000 0.090909 -0.090909 0.000000 0.090909 0.090909 0.000000 0.090909 0.272727 0.000000 0.090909 0.454545 0.000000 0.090909 0.636364 0.000000 0.090909 0.818182 0.000000 0.272727 -0.818182 0.000000 0.272727 -0.636364 0.000000 0.272727 -0.454545 0.000000 0.272727 -0.272727 0.000000 0.272727 -0.090909 0.000000 0.272727 0.090909 0.000000 0.272727 0.272727 0.000000 0.272727 0.454545 0.000000 0.272727 0.636364 0.000000 0.272727 0.818182 0.000000 0.454545 -0.818182 0.000000 0.454545 -0.636364 0.000000 0.454545 -0.454545 0.000000 0.454545 -0.272727 0.000000 0.454545 -0.090909 0.000000 0.454545 0.090909 0.000000 0.454545 0.272727 0.000000 0.454545 0.454545 0.000000 0.454545 0.636364 0.000000 0.454545 0.818182 0.000000 0.636364 -0.818182 0.000000 0.636364 -0.636364 0.000000 0.636364 -0.454545 0.000000 0.636364 -0.272727 0.000000 0.636364 -0.090909 0.000000 0.636364 0.090909 0.000000 0.636364 0.272727 0.000000 0.636364 0.454545 0.000000 0.636364 0.636364 0.000000 0.636364 0.818182 0.000000 0.818182 -0.818182 0.000000 0.818182 -0.636364 0.000000 0.818182 -0.454545 0.000000 0.818182 -0.272727 0.000000 0.818182 -0.090909 0.000000 0.818182 0.090909 0.000000 0.818182 0.272727 0.000000 0.818182 0.454545 0.000000 0.818182 0.636364 0.000000 0.818182 0.818182 0.000000 
</DataArray>
</Points>
</Piece>
</StructuredGrid>
</VTKFile>
