<VTKFile type="StructuredGrid" version="1.0" byte_order="LittleEndian" header_type="UInt64">
<StructuredGrid WholeExtent="0 9 0 9 0 0">
<Piece Extent="0 9 0 9 0 0">
<PointData Scalars="residual">
<DataArray type="Float64" Name="residual" format="ascii">
8.4124179191400654e-04 2.2034327348372353e-04 -2.0899159322000736e-04 -1.4039235662831415e-04 -7.0437290909045568e-05 -7.0097682344916114e-05 -1.4194690459565663e-04 -2.1345172209618832e-04 2.2883018809763574e-04 8.4051645948567556e-04 2.2337875032733389e-04 -2.5258399534792628e-05 -1.9584860755703136e-04 -1.2813005860108292e-04 -4.7673236820877825e-05 -4.7365699369901135e-05 -1.2734613541899413e-04 -1.9926325636047786e-04 -1.7058682482808032e-05 2.3187004717215584e-04 -2.0732070802569232e-04 -2.0264088481557717e-04 -1.6829433020098443e-04 -1.1245177251217658e-04 -6.2472898772346960e-05 -6.2065194491333665e-05 -1.1335261595167350e-04 -1.7059702848257327e-04 -1.9547297903553616e-04 -2.1116867600393888e-04 -1.5129010746645468e-04 -1.2886405972975870e-04 -1.1346324358540603e-04 -1.1680903261215413e-04 -1.1641408438239865e-04 -1.0320612426468340e-04 -1.1686657021652523e-04 -1.0941478575393756e-04 -1.3298113180439802e-04 -1.4278019160563144e-04 -6.6826981492860808e-05 -5.8010000757988123e-05 -5.8282279559055371e-05 -1.0233891815473843e-04 -1.6591223751579202e-04 -1.5539210215506638e-04 -1.0903519105209597e-04 -6.3226449885551983e-05 -5.2522632120971177e-05 -7.3925110374841504e-05 -7.3350759884930391e-05 -5.4607257810479048e-05 -6.1428412148652103e-05 -1.1492994910010683e-04 -1.5928349846043447e-04 -1.7031131103473467e-04 -1.1012945122514670e-04 -5.6510547174661117e-05 -5.5541693958593812e-05 -6.6875316441944357e-05 -1.3415971260263837e-04 -1.2443750497542283e-04 -1.1502908569868860e-04 -1.0583209597381455e-04 -1.1962927011024277e-04 -1.1813739038039938e-04 -1.0326893938279822e-04 -1.1990059412308844e-04 -1.1839595074477835e-04 -1.4251895283625467e-04 -2.0821937715206646e-04 -2.0272297245410575e-04 -1.7952829664231703e-04 -1.1022302164663284e-04 -6.2101632933005656e-05 -6.2924202511523402e-05 -1.1984291890982475e-04 -1.6415410815608989e-04 -2.0522750820112343e-04 -2.1723570735995108e-04 2.2307779446524133e-04 -2.0490629025651189e-05 -1.9563195100812938e-04 -1.1575802716683528e-04 -4.6782453866732378e-05 -4.9809929563146126e-05 -1.2384943322875201e-04 -2.0129072049833159e-04 -2.8987047546248906e-05 2.2556942830963961e-04 8.4138802681379531e-04 2.2172087824759825e-04 -2.1358879206237729e-04 -1.4146249637082440e-04 -6.7764862031713911e-05 -6.4770616553881753e-05 -1.4131382872364104e-04 -2.1390114865924926e-04 2.2602589679407512e-04 8.3054553498768764e-04 
</DataArray>
</PointData>
<CellData></CellData>
<Points>
<DataArray type="Float64" Name="Points" NumberOfComponents="3" format="ascii">
-0.818182 -0.818182 0.000000 -0.818182 -0.636364 0.000000 -0.818182 -0.454545 0.000000 -0.818182 -0.272727 0.000000 -0.818182 -0.090909 0.000000 -0.818182 0.090909 0.000000 -0.818182 0.272727 0.000000 -0.818182 0.454545 0.000000 -0.818182 0.636364 0.000000 -0.818182 0.818182 0.000000 -0.636364 -0.818182 0.000000 -0.636364 -0.636364 0.000000 -0.636364 -0.454545 0.000000 -0.636364 -0.272727 0.000000 -0.636364 -0.090909 0.000000 -0.636364 0.090909 0.000000 -0.636364 0.272727 0.000000 -0.636364 0.454545 0.000000 -0.636364 0.636364 0.000000 -0.636364 0.818182 0.000000 -0.454545 -0.818182 0.000000 -0.454545 -0.636364 0.000000 -0.454545 -0.454545 0.000000 -0.454545 -0.272727 0.000000 -0.454545 -0.090909 0.000000 -0.454545 0.090909 0.000000 -0.454545 0.272727 0.000000 -0.454545 0.454545 0.000000 -0.454545 0.636364 0.000000 -0.454545 0.818182 0.000000 -0.272727 -0.818182 0.000000 -0.272727 -0.636364 0.000000 -0.272727 -0.454545 0.000000 -0.272727 -0.272727 0.000000 -0.272727 -0.090909 0.000000 -0.272727 0.090909 0.000000 -0.272727 0.272727 0.000000 -0.272727 0.454545 0.000000 -0.272727 0.636364 0.000000 -0.272727 0.818182 0.000000 -0.090909 -0.818182 0.000000 -0.090909 -0.636364 0.000000 -0.090909 -0.454545 0.000000 -0.090909 -0.272727 0.000000 -0.090909 -0.090909 0.000000 -0.090909 0.090909 0.000000 -0.090909 0.272727 0.000000 -0.090909 0.454545 0.000000 -0.090909 0.636364 0.000000 -0.090909 0.818182 0.000000 0.090909 -0.818182 0.000000 0.090909 -0.636364 0.000000 0.090909 -0.454545 0.000000 0.090909 -0.272727 0.000000 0.090909 -0.090909 0.000000 0.090909 0.090909 0.000000 0.090909 0.272727 0.000000 0.090909 0.454545 0.000000 0.090909 0.636364 0.000000 0.090909 0.818182 0.000000 0.272727 -0.818182 0.000000 0.272727 -0.636364 0.000000 0.272727 -0.454545 0.000000 0.272727 -0.272727 0.000000 0.272727 -0.090909 0.000000 0.272727 0.090909 0.000000 0.272727 0.272727 0.000000 0.272727 0.454545 0.000000 0.272727 0.636364 0.000000 0.272727 0.818182 0.000000 0.454545 -0.818182 0.000000 0.454545 -0.636364 0.000000 0.454545 -0.454545 0.000000 0.454545 -0.272727 0.000000 0.454545 -0.090909 0.000000 0.454545 0.090909 0.000000 0.454545 0.272727 0.000000 0.454545 0.454545 0.000000 0.454545 0.636364 0.000000 0.454545 0.818182 0.000000 0.636364 -0.818182 0.000000 0.636364 -0.636364 0.000000 0.636364 -0.454545 0.000000 0.636364 -0.272727 0.000000 0.636364 -0.090909 0.000000 0.636364 0.090909 0.000000 0.636364 0.272727 0.000000 0.636364 0.454545 0.000000 0.636364 0.636364 0.000000 0.636364 0.818182 0.000000 0.818182 -0.818182 0.000000 0.818182 -0.636364 0.000000 0.818182 -0.454545 0.000000 0.818182 -0.272727 0.000000 0.818182 -0.090909 0.000000 0.818182 0.090909 0.000000 0.818182 0.272727 0.000000 0.818182 0.454545 0.000000 0.818182 0.636364 0.000000 0.818182 0.818182 0.000000 
</DataArray>
</Points>
</Piece>
</StructuredGrid>
</VTKFile>
