<VTKFile type="StructuredGrid" version="1.0" byte_order="LittleEndian" header_type="UInt64">
<StructuredGrid WholeExtent="0 9 0 9 0 0">
<Piece Extent="0 9 0 9 0 0">
<PointData Scalars="residual">
<DataArray type="Float64" Name="residual" format="ascii">
1.0578515702661961e-03 5.4633743155737538e-04 1.5105259841121602e-04 7.0052938232789339e-05 -1.2856193202188948e-05 -1.9732194008799213e-05 7.2028297640181621e-05 1.4426944028462455e-04 5.5635367248808550e-04 1.0505895171800572e-03 5.5894138871680427e-04 8.3040936277674251e-05 -2.2697279417347458e-04 -1.0656098984596898e-04 1.1498977646391283e-05 1.0895554492054943e-05 -1.0142859929110196e-04 -2.2432177408118065e-04 9.0018350085295691e-05 5.5637336753500827e-04 1.4282908870487908e-04 -2.2479142297901922e-04 -4.5018161468267739e-04 -1.9185079068568785e-04 4.6166136789571252e-05 4.0138268791735723e-05 -1.9469138688638890e-04 -4.5219776918583253e-04 -2.2365697310290644e-04 1.5171896235884833e-04 7.6144646911037971e-05 -1.1432618514247350e-04 -2.0801184806098984e-04 -4.6136693379847903e-05 1.2020688454201373e-04 1.0520297723261990e-04 -5.0160911936618716e-05 -1.9802630316107005e-04 -1.0587348115071588e-04 6.4232626892461557e-05 -1.3926500080394671e-05 2.7107777550533464e-06 5.5263333476131965e-05 1.1063922326887479e-04 1.8587463812129792e-04 1.7696635956402154e-04 1.1171073564792550e-04 4.7658890832242944e-05 1.4104771867958952e-05 -2.0874697093737054e-05 -1.8850755105338877e-05 2.9229661076543632e-06 4.9134334930586027e-05 1.0947596852015767e-04 1.8240299131772747e-04 1.8837858775138522e-04 1.1257064066796767e-04 3.9751121584788440e-05 1.4117685218217332e-05 -1.6297116525375039e-05 6.7720176428996692e-05 -1.1326964342361022e-04 -1.9548595536807568e-04 -3.6822329757513553e-05 1.0934589591572209e-04 1.0959062566565612e-04 -3.9464062131891985e-05 -2.0594574212704506e-04 -1.1205467127219809e-04 5.5828672260217066e-05 1.5398415303169606e-04 -2.2443161983992871e-04 -4.4742575986815298e-04 -2.0117192708857972e-04 4.8375497041354062e-05 4.5413605025699036e-05 -1.9105270308954550e-04 -4.5457743392452463e-04 -2.2479274533498527e-04 1.5453533622714153e-04 5.4448318558406820e-04 9.8775688787795628e-05 -2.2044496788514376e-04 -1.1602094410911369e-04 4.4457670779109583e-06 1.0559244141280643e-05 -1.0327377101113588e-04 -2.1866956634672375e-04 9.2694593348891224e-05 5.5139758841899183e-04 1.0576771205388384e-03 5.4771247833616419e-04 1.4988755423374876e-04 6.3381938734132469e-05 -2.3000263787640186e-05 -8.9971827040755646e-06 6.4053853038259501e-05 1.5100383271139661e-04 5.5868413288147779e-04 1.0507633495993435e-03 
</DataArray>
</PointData>
<CellData></CellData>
<Points>
<DataArray type="Float64" Name="Points" NumberOfComponents="3" format="ascii">
-0.818182 -0.818182 0.000000 -0.818182 -0.636364 0.000000 -0.818182 -0.454545 0.000000 -0.818182 -0.272727 0.000000 -0.818182 -0.090909 0.000000 -0.818182 0.090909 0.000000 -0.818182 0.272727 0.000000 -0.818182 0.454545 0.000000 -0.818182 0.636364 0.000000 -0.818182 0.818182 0.000000 -0.636364 -0.818182 0.000000 -0.636364 -0.636364 0.000000 -0.636364 -0.454545 0.000000 -0.636364 -0.272727 0.000000 -0.636364 -0.090909 0.000000 -0.636364 0.090909 0.000000 -0.636364 0.272727 0.000000 -0.636364 0.454545 0.000000 -0.636364 0.636364 0.000000 -0.636364 0.818182 0.000000 -0.454545 -0.818182 0.000000 -0.454545 -0.636364 0.000000 -0.454545 -0.454545 0.000000 -0.454545 -0.272727 0.000000 -0.454545 -0.090909 0.000000 -0.454545 0.090909 0.000000 -0.454545 0.272727 0.000000 -0.454545 0.454545 0.000000 -0.454545 0.636364 0.000000 -0.454545 0.818182 0.000000 -0.272727 -0.818182 0.000000 -0.272727 -0.636364 0.000000 -0.272727 -0.454545 0.000000 -0.272727 -0.272727 0.000000 -0.272727 -0.090909 0.000000 -0.272727 0.090909 0.000000 -0.272727 0.272727 0.000000 -0.272727 0.454545 0.000000 -0.272727 0.636364 0.000000 -0.272727 0.818182 0.000000 -0.090909 -0.818182 0.000000 -0.090909 -0.636364 0.000000 -0.090909 -0.454545 0.000000 -0.090909 -0.272727 0.000000 -0.090909 -0.090909 0.000000 -0.090909 0.090909 0.000000 -0.090909 0.272727 0.000000 -0.090909 0.454545 0.000000 -0.090909 0.636364 0.000000 -0.090909 0.818182 0.000000 0.090909 -0.818182 0.000000 0.090909 -0.636364 0.000000 0.090909 -0.454545 0.000000 0.090909 -0.272727 0.000000 0.090909 -0.090909 0.000000 0.090909 0.090909 0.000000 0.090909 0.272727 0.000000 0.090909 0.454545 0.000000 0.090909 0.636364 0.000000 0.090909 0.818182 0.000000 0.272727 -0.818182 0.000000 0.272727 -0.636364 0.000000 0.272727 -0.454545 0.000000 0.272727 -0.272727 0.000000 0.272727 -0.090909 0.000000 0.272727 0.090909 0.000000 0.272727 0.272727 0.000000 0.272727 0.454545 0.000000 0.272727 0.636364 0.000000 0.272727 0.818182 0.000000 0.454545 -0.818182 0.000000 0.454545 -0.636364 0.000000 0.454545 -0.454545 0.000000 0.454545 -0.272727 0.000000 0.454545 -0.090909 0.000000 0.454545 0.090909 0.000000 0.454545 0.272727 0.000000 0.454545 0.454545 0.000000 0.454545 0.636364 0.000000 0.454545 0.818182 0.000000 0.636364 -0.818182 0.000000 0.636364 -0.636364 0.000000 0.636364 -0.454545 0.000000 0.636364 -0.272727 0.000000 0.636364 -0.090909 0.000000 0.636364 0.090909 0.000000 0.636364 0.272727 0.000000 0.636364 0.454545 0.000000 0.636364 0.636364 0.000000 0.636364 0.818182 0.000000 0.818182 -0.818182 0.000000 0.818182 -0.636364 0.000000 0.818182 -0.454545 0.000000 0.818182 -0.272727 0.000000 0.818182 -0.090909 0.000000 0.818182 0.090909 0.000000 0.818182 0.272727 0.000000 0.818182 0.454545 0.000000 0.818182 0.636364 0.000000 0.818182 0.818182 0.000000 
</DataArray>
</Points>
</Piece>
</StructuredGrid>
</VTKFile>
