<VTKFile type="StructuredGrid" version="1.0" byte_order="LittleEndian" header_type="UInt64">
<StructuredGrid WholeExtent="0 9 0 9 0 0">
<Piece Extent="0 9 0 9 0 0">
<PointData Scalars="residual">
<DataArray type="Float64" Name="residual" format="ascii">
1.5542641929146569e-06 2.2633527026878348e-05 3.1629769738910522e-05 5.1593832160988344e-05 6.7542948612650425e-05 5.9371773062621958e-05 3.8914732049242839e-05 3.7737321992014806e-05 1.3757824052012642e-05 2.8111292922739462e-07 2.7121065998506959e-05 4.7224888139056311e-05 3.4737041216987278e-05 -2.6892311050154695e-05 -9.0090018050904548e-05 -8.8894359656275525e-05 -3.8837224249082365e-05 3.0805091478699989e-05 4.3785029851632358e-05 2.0793236003746601e-05 4.6646588222302491e-05 3.9188788497928684e-05 9.5395996807192375e-06 -3.0670564910229708e-05 -9.5675761931189292e-05 -9.4869401187454815e-05 -4.2687245544616344e-05 1.1352599921335370e-05 4.2005280498087040e-05 2.8503555080101154e-05 4.8138122962295787e-05 -3.3493842351456869e-05 -3.8360538624980533e-05 1.5442037707186999e-04 3.5480043548228278e-04 3.6090274234031224e-04 1.7060068114236118e-04 -3.8962804368477448e-05 -3.8795747369422477e-05 5.3371307959635062e-05 5.1574788763004216e-05 -9.0363871985343837e-05 -9.1881911700279761e-05 3.6761814195469290e-04 8.2844206754784447e-04 8.1698512552685378e-04 3.6343874898867382e-04 -8.7633548529795959e-05 -8.7351686637502333e-05 5.7297443247557897e-05 5.8312986661493318e-05 -1.0040547071889575e-04 -9.3026167164155958e-05 3.5400559998147174e-04 8.2079024919950658e-04 8.2570581790979668e-04 3.7088190238637568e-04 -8.7702487319535252e-05 -9.9717299279547468e-05 5.1692631445433694e-05 4.3611319374190681e-05 -3.1636308142628038e-05 -3.4130247371558947e-05 1.5738126203020553e-04 3.5966483185738418e-04 3.6625018011180246e-04 1.6607831562418223e-04 -4.0446335144519747e-05 -3.6865450469907978e-05 5.4858739518982153e-05 4.6107369529008464e-05 2.7254572932006329e-05 1.6124658367592855e-05 -3.6919011648663212e-05 -9.4537121928131226e-05 -8.5232310100531814e-05 -4.4080393795583000e-05 2.0499884255749719e-05 3.7179508875067157e-05 4.3119087298136898e-05 2.2979372469655126e-05 3.2898375713229235e-05 4.2088432349653604e-05 -3.6939040220741336e-05 -9.5743095102057544e-05 -8.6386228183982813e-05 -3.6526214267251940e-05 3.1563210986300909e-05 3.1576301883401426e-05 2.2568190239278511e-05 7.8643116942287020e-06 3.1933259884161643e-05 3.1546706753119996e-05 5.6112710728685358e-05 6.6086070560026223e-05 5.9105150326161564e-05 5.4319324432155721e-05 3.6412707665625077e-05 2.6056488895531720e-05 1.5191161883363791e-05 
</DataArray>
</PointData>
<CellData></CellData>
<Points>
<DataArray type="Float64" Name="Points" NumberOfComponents="3" format="ascii">
-0.818182 -0.818182 0.000000 -0.818182 -0.636364 0.000000 -0.818182 -0.454545 0.000000 -0.818182 -0.272727 0.000000 -0.818182 -0.090909 0.000000 -0.818182 0.090909 0.000000 -0.818182 0.272727 0.000000 -0.818182 0.454545 0.000000 -0.818182 0.636364 0.000000 -0.818182 0.818182 0.000000 -0.636364 -0.818182 0.000000 -0.636364 -0.636364 0.000000 -0.636364 -0.454545 0.000000 -0.636364 -0.272727 0.000000 -0.636364 -0.090909 0.000000 -0.636364 0.090909 0.000000 -0.636364 0.272727 0.000000 -0.636364 0.454545 0.000000 -0.636364 0.636364 0.000000 -0.636364 0.818182 0.000000 -0.454545 -0.818182 0.000000 -0.454545 -0.636364 0.000000 -0.454545 -0.454545 0.000000 -0.454545 -0.272727 0.000000 -0.454545 -0.090909 0.000000 -0.454545 0.090909 0.000000 -0.454545 0.272727 0.000000 -0.454545 0.454545 0.000000 -0.454545 0.636364 0.000000 -0.454545 0.818182 0.000000 -0.272727 -0.818182 0.000000 -0.272727 -0.636364 0.000000 -0.272727 -0.454545 0.000000 -0.272727 -0.272727 0.000000 -0.272727 -0.090909 0.000000 -0.272727 0.090909 0.000000 -0.272727 0.272727 0.000000 -0.272727 0.454545 0.000000 -0.272727 0.636364 0.000000 -0.272727 0.818182 0.000000 -0.090909 -0.818182 0.000000 -0.090909 -0.636364 0.000000 -0.090909 -0.454545 0.000000 -0.090909 -0.272727 0.000000 -0.090909 -0.090909 0.000000 -0.090909 0.090909 0.000000 -0.090909 0.272727 0.000000 -0.090909 0.454545 0.000000 -0.090909 0.636364 0.000000 -0.090909 0.818182 0.000000 0.090909 -0.818182 0.000000 0.090909 -0.636364 0.000000 0.090909 -0.454545 0.000000 0.090909 -0.272727 0.000000 0.090909 -0.090909 0.000000 0.090909 0.090909 0.000000 0.090909 0.272727 0.000000 0.090909 0.454545 0.000000 0.090909 0.636364 0.000000 0.090909 0.818182 0.000000 0.272727 -0.818182 0.000000 0.272727 -0.636364 0.000000 0.272727 -0.454545 0.000000 0.272727 -0.272727 0.000000 0.272727 -0.090909 0.000000 0.272727 0.090909 0.000000 0.272727 0.272727 0.000000 0.272727 0.454545 0.000000 0.272727 0.636364 0.000000 0.272727 0.818182 0.000000 0.454545 -0.818182 0.000000 0.454545 -0.636364 0.000000 0.454545 -0.454545 0.000000 0.454545 -0.272727 0.000000 0.454545 -0.090909 0.000000 0.454545 0.090909 0.000000 0.454545 0.272727 0.000000 0.454545 0.454545 0.000000 0.454545 0.636364 0.000000 0.454545 0.818182 0.000000 0.636364 -0.818182 0.000000 0.636364 -0.636364 0.000000 0.636364 -0.454545 0.000000 0.636364 -0.272727 0.000000 0.636364 -0.090909 0.000000 0.636364 0.090909 0.000000 0.636364 0.272727 0.000000 0.636364 0.454545 0.000000 0.636364 0.636364 0.000000 0.636364 0.818182 0.000000 0.818182 -0.818182 0.000000 0.818182 -0.636364 0.000000 0.818182 -0.454545 0.000000 0.818182 -0.272727 0.000000 0.818182 -0.090909 0.000000 0.818182 0.090909 0.000000 0.818182 0.272727 0.000000 0.818182 0.454545 0.000000 0.818182 0.636364 0.000000 0.818182 0.818182 0.000000 
</DataArray>
</Points>
</Piece>
</StructuredGrid>
</VTKFile>
