<VTKFile type="StructuredGrid" version="1.0" byte_order="LittleEndian" header_type="UInt64">
<StructuredGrid WholeExtent="0 9 0 9 0 0">
<Piece Extent="0 9 0 9 0 0">
<PointData Scalars="residual">
<DataArray type="Float64" Name="residual" format="ascii">
-1.9458459879927008e-03 -1.6603542987280412e-03 -1.4348276004046527e-03 -1.3932534942300793e-03 -1.3684526194113261e-03 -1.3679320024117545e-03 -1.3938543675699059e-03 -1.4385712215120930e-03 -1.6539602249533679e-03 -1.9502553448706255e-03 -1.6642570363006020e-03 -1.0093670664891308e-03 -4.8565924527438180e-04 -3.0352792286209886e-04 -1.0524455519219517e-04 -1.0786883605104838e-04 -2.8884484028724421e-04 -4.8996489491136969e-04 -1.0154320504899362e-03 -1.6559331470580056e-03 -1.4296000149112758e-03 -4.9452092517790307e-04 2.6539304345560635e-04 4.8015149025389461e-04 7.0004070983261703e-04 7.0887105593553899e-04 4.7751876781458591e-04 2.7192107651624609e-04 -4.8296710966096168e-04 -1.4295116074105382e-03 -1.4067164845956446e-03 -2.9502756937316819e-04 4.8474370429687184e-04 2.8290641726959158e-04 9.9506661579971435e-05 9.3328759781574622e-05 2.9504964760526664e-04 4.7410567094075678e-04 -2.9513076337792966e-04 -1.3949203305812317e-03 -1.3782853913449824e-03 -1.0418239011057880e-04 7.0373097631324169e-04 9.7238793132004876e-05 -5.1487179142318401e-04 -5.1518747012208824e-04 9.7364295416865407e-05 7.0426808815012357e-04 -1.0718125156678436e-04 -1.3686775935393570e-03 -1.3648267153541964e-03 -1.0588539146852774e-04 6.9264247413519144e-04 8.6773467248242760e-05 -5.0387277117204358e-04 -5.1579197175651622e-04 9.9348759556046502e-05 6.9584129215559051e-04 -9.5053085429395653e-05 -1.3766739185587917e-03 -1.3937954794493142e-03 -3.0115359166400270e-04 4.8144703894823122e-04 2.9741864420785268e-04 9.6473576204025163e-05 9.1183882764689361e-05 2.8253442161487417e-04 4.8867312181735331e-04 -3.0581044863675112e-04 -1.4077761663618977e-03 -1.4254978822276073e-03 -4.9176305189070450e-04 2.6513640268377436e-04 4.9095751700392598e-04 6.9505904663260017e-04 7.0373686849668077e-04 4.7569483365567967e-04 2.7744660921686683e-04 -4.9207648957383561e-04 -1.4268948149548481e-03 -1.6479491919205221e-03 -1.0101870164443113e-03 -4.9073261813216591e-04 -2.9942780908118714e-04 -9.5213547876735541e-05 -9.8648804228178635e-05 -2.9102637453523768e-04 -4.8726386584404570e-04 -1.0201176205105779e-03 -1.6621642036712702e-03 -1.9538483868178427e-03 -1.6617858020378084e-03 -1.4233081065197191e-03 -1.4008950549321830e-03 -1.3771565260004819e-03 -1.3684757922421027e-03 -1.3935917629445431e-03 -1.4364996021734196e-03 -1.6465260143549623e-03 -1.9560778286219572e-03 
</DataArray>
</PointData>
<CellData></CellData>
<Points>
<DataArray type="Float64" Name="Points" NumberOfComponents="3" format="ascii">
-0.818182 -0.818182 0.000000 -0.818182 -0.636364 0.000000 -0.818182 -0.454545 0.000000 -0.818182 -0.272727 0.000000 -0.818182 -0.090909 0.000000 -0.818182 0.090909 0.000000 -0.818182 0.272727 0.000000 -0.818182 0.454545 0.000000 -0.818182 0.636364 0.000000 -0.818182 0.818182 0.000000 -0.636364 -0.818182 0.000000 -0.636364 -0.636364 0.000000 -0.636364 -0.454545 0.000000 -0.636364 -0.272727 0.000000 -0.636364 -0.090909 0.000000 -0.636364 0.090909 0.000000 -0.636364 0.272727 0.000000 -0.636364 0.454545 0.000000 -0.636364 0.636364 0.000000 -0.636364 0.818182 0.000000 -0.454545 -0.818182 0.000000 -0.454545 -0.636364 0.000000 -0.454545 -0.454545 0.000000 -0.454545 -0.272727 0.000000 -0.454545 -0.090909 0.000000 -0.454545 0.090909 0.000000 -0.454545 0.272727 0.000000 -0.454545 0.454545 0.000000 -0.454545 0.636364 0.000000 -0.454545 0.818182 0.000000 -0.272727 -0.818182 0.000000 -0.272727 -0.636364 0.000000 -0.272727 -0.454545 0.000000 -0.272727 -0.272727 0.000000 -0.272727 -0.090909 0.000000 -0.272727 0.090909 0.000000 -0.272727 0.272727 0.000000 -0.272727 0.454545 0.000000 -0.272727 0.636364 0.000000 -0.272727 0.818182 0.000000 -0.090909 -0.818182 0.000000 -0.090909 -0.636364 0.000000 -0.090909 -0.454545 0.000000 -0.090909 -0.272727 0.000000 -0.090909 -0.090909 0.000000 -0.090909 0.090909 0.000000 -0.090909 0.272727 0.000000 -0.090909 0.454545 0.000000 -0.090909 0.636364 0.000000 -0.090909 0.818182 0.000000 0.090909 -0.818182 0.000000 0.090909 -0.636364 0.000000 0.090909 -0.454545 0.000000 0.090909 -0.272727 0.000000 0.090909 -0.090909 0.000000 0.090909 0.090909 0.000000 0.090909 0.272727 0.000000 0.090909 0.454545 0.000000 0.090909 0.636364 0.000000 0.090909 0.818182 0.000000 0.272727 -0.818182 0.000000 0.272727 -0.636364 0.000000 0.272727 -0.454545 0.000000 0.272727 -0.272727 0.000000 0.272727 -0.090909 0.000000 0.272727 0.090909 0.000000 0.272727 0.272727 0.000000 0.272727 0.454545 0.000000 0.272727 0.636364 0.000000 0.272727 0.818182 0.000000 0.454545 -0.818182 0.000000 0.454545 -0.636364 0.000000 0.454545 -0.454545 0.000000 0.454545 -0.272727 0.000000 0.454545 -0.090909 0.000000 0.454545 0.090909 0.000000 0.454545 0.272727 0.000000 0.454545 0.454545 0.000000 0.454545 0.636364 0.000000 0.454545 0.818182 0.000000 0.636364 -0.818182 0.000000 0.636364 -0.636364 0.000000 0.636364 -0.454545 0.000000 0.636364 -0.272727 0.000000 0.636364 -0.090909 0.000000 0.636364 0.090909 0.000000 0.636364 0.272727 0.000000 0.636364 0.454545 0.000000 0.636364 0.636364 0.000000 0.636364 0.818182 0.000000 0.818182 -0.818182 0.000000 0.818182 -0.636364 0.000000 0.818182 -0.454545 0.000000 0.818182 -0.272727 0.000000 0.818182 -0.090909 0.000000 0.818182 0.090909 0.000000 0.818182 0.272727 0.000000 0.818182 0.454545 0.000000 0.818182 0.636364 0.000000 0.818182 0.818182 0.000000 
</DataArray>
</Points>
</Piece>
</StructuredGrid>
</VTKFile>
