<VTKFile type="StructuredGrid" version="1.0" byte_order="LittleEndian" header_type="UInt64">
<StructuredGrid WholeExtent="0 9 0 9 0 0">
<Piece Extent="0 9 0 9 0 0">
<PointData Scalars="residual">
<DataArray type="Float64" Name="residual" format="ascii">
1.1703773282191856e-03 1.0203016919644583e-04 -4.9793987666592321e-04 2.3046456506858751e-04 9.6022483593067275e-04 9.6005224337656616e-04 2.2737341374653693e-04 -5.0496101113328435e-04 1.0881441588248605e-04 1.1694352454928816e-03 1.0496088980075291e-04 -6.9411851606344683e-04 -1.1525434107201101e-03 -5.8483684029563953e-04 -4.3919970469123368e-06 -4.7625807323742504e-06 -5.8608728052286872e-04 -1.1593486652057530e-03 -6.8819051235648968e-04 1.1312441050773158e-04 -4.9639279684944495e-04 -1.1593971891313616e-03 -1.5282179798977728e-03 -1.0819921572568858e-03 -6.4163001856497705e-04 -6.4192030923130618e-04 -1.0849869855384096e-03 -1.5340106529160736e-03 -1.1546167637034774e-03 -5.0069292270221461e-04 2.1968108101639303e-04 -5.8556407846993000e-04 -1.0830627202655439e-03 -6.5499271938310134e-04 -2.2318198124415432e-04 -2.1025375126278341e-04 -6.5588944739650721e-04 -1.0804129131158015e-03 -5.9082456267378278e-04 2.2757438957558048e-04 9.6418748429658637e-04 -1.4653733922546756e-05 -6.3755758322254271e-04 -2.0916590695192186e-04 1.9970908855332674e-04 2.1036775858870481e-04 -2.1544657582532340e-04 -6.4180908017577934e-04 -9.0657091918002787e-06 9.5630829868585763e-04 9.5794006215472322e-04 -1.1349465623335803e-05 -6.4103863666558052e-04 -2.2191315087579039e-04 2.0636032250512639e-04 1.9559564256101504e-04 -2.1632325511026281e-04 -6.3480510854064306e-04 -1.2146757172364509e-05 9.6280587037418609e-04 2.3764054463082602e-04 -5.8143294766048849e-04 -1.0856333249391484e-03 -6.4448442168026088e-04 -2.2632968228267561e-04 -2.2474373882256553e-04 -6.4163907389844666e-04 -1.0900345147122196e-03 -5.7642534004299136e-04 2.2617896161124989e-04 -4.9590968472479086e-04 -1.1599716500113812e-03 -1.5411265506063093e-03 -1.0805444712838415e-03 -6.4114627824343132e-04 -6.4204385299160630e-04 -1.0903893840560064e-03 -1.5261273879683694e-03 -1.1646812235837775e-03 -5.0952106528107284e-04 1.0477286285574729e-04 -6.9071672155006023e-04 -1.1545127414648937e-03 -5.7349412660827413e-04 -3.3738622928470262e-06 -6.2031274060698333e-06 -5.8099090092061803e-04 -1.1591804580391395e-03 -6.9972006910898246e-04 1.0462811800065119e-04 1.1687604514240050e-03 1.0094264405774650e-04 -5.0518162626832794e-04 2.2813824575901483e-04 9.6302945643391520e-04 9.6664255646537875e-04 2.3014347706709019e-04 -5.0239971009704686e-04 1.0739524235271487e-04 1.1583907122844177e-03 
</DataArray>
</PointData>
<CellData></CellData>
<Points>
<DataArray type="Float64" Name="Points" NumberOfComponents="3" format="ascii">
-0.818182 -0.818182 0.000000 -0.818182 -0.636364 0.000000 -0.818182 -0.454545 0.000000 -0.818182 -0.272727 0.000000 -0.818182 -0.090909 0.000000 -0.818182 0.090909 0.000000 -0.818182 0.272727 0.000000 -0.818182 0.454545 0.000000 -0.818182 0.636364 0.000000 -0.818182 0.818182 0.000000 -0.636364 -0.818182 0.000000 -0.636364 -0.636364 0.000000 -0.636364 -0.454545 0.000000 -0.636364 -0.272727 0.000000 -0.636364 -0.090909 0.000000 -0.636364 0.090909 0.000000 -0.636364 0.272727 0.000000 -0.636364 0.454545 0.000000 -0.636364 0.636364 0.000000 -0.636364 0.818182 0.000000 -0.454545 -0.818182 0.000000 -0.454545 -0.636364 0.000000 -0.454545 -0.454545 0.000000 -0.454545 -0.272727 0.000000 -0.454545 -0.090909 0.000000 -0.454545 0.090909 0.000000 -0.454545 0.272727 0.000000 -0.454545 0.454545 0.000000 -0.454545 0.636364 0.000000 -0.454545 0.818182 0.000000 -0.272727 -0.818182 0.000000 -0.272727 -0.636364 0.000000 -0.272727 -0.454545 0.000000 -0.272727 -0.272727 0.000000 -0.272727 -0.090909 0.000000 -0.272727 0.090909 0.000000 -0.272727 0.272727 0.000000 -0.272727 0.454545 0.000000 -0.272727 0.636364 0.000000 -0.272727 0.818182 0.000000 -0.090909 -0.818182 0.000000 -0.090909 -0.636364 0.000000 -0.090909 -0.454545 0.000000 -0.090909 -0.272727 0.000000 -0.090909 -0.090909 0.000000 -0.090909 0.090909 0.000000 -0.090909 0.272727 0.000000 -0.090909 0.454545 0.000000 -0.090909 0.636364 0.000000 -0.090909 0.818182 0.000000 0.090909 -0.818182 0.000000 0.090909 -0.636364 0.000000 0.090909 -0.454545 0.000000 0.090909 -0.272727 0.000000 0.090909 -0.090909 0.000000 0.090909 0.090909 0.000000 0.090909 0.272727 0.000000 0.090909 0.454545 0.000000 0.090909 0.636364 0.000000 0.090909 0.818182 0.000000 0.272727 -0.818182 0.000000 0.272727 -0.636364 0.000000 0.272727 -0.454545 0.000000 0.272727 -0.272727 0.000000 0.272727 -0.090909 0.000000 0.272727 0.090909 0.000000 0.272727 0.272727 0.000000 0.272727 0.454545 0.000000 0.272727 0.636364 0.000000 0.272727 0.818182 0.000000 0.454545 -0.818182 0.000000 0.454545 -0.636364 0.000000 0.454545 -0.454545 0.000000 0.454545 -0.272727 0.000000 0.454545 -0.090909 0.000000 0.454545 0.090909 0.000000 0.454545 0.272727 0.000000 0.454545 0.454545 0.000000 0.454545 0.636364 0.000000 0.454545 0.818182 0.000000 0.636364 -0.818182 0.000000 0.636364 -0.636364 0.000000 0.636364 -0.454545 0.000000 0.636364 -0.272727 0.000000 0.636364 -0.090909 0.000000 0.636364 0.090909 0.000000 0.636364 0.272727 0.000000 0.636364 0.454545 0.000000 0.636364 0.636364 0.000000 0.636364 0.818182 0.000000 0.818182 -0.818182 0.000000 0.818182 -0.636364 0.000000 0.818182 -0.454545 0.000000 0.818182 -0.272727 0.000000 0.818182 -0.090909 0.000000 0.818182 0.090909 0.000000 0.818182 0.272727 0.000000 0.818182 0.454545 0.000000 0.818182 0.636364 0.000000 0.818182 0.818182 0.000000 
</DataArray>
</Points>
</Piece>
</StructuredGrid>
</VTKFile>
