<VTKFile type="StructuredGrid" version="1.0" byte_order="LittleEndian" header_type="UInt64">
<StructuredGrid WholeExtent="0 9 0 9 0 0">
<Piece Extent="0 9 0 9 0 0">
<PointData Scalars="residual">
<DataArray type="Float64" Name="residual" format="ascii">
-6.8076229989286760e-04 -2.2373814868631003e-04 3.5425641435969830e-05 -3.5462981478128494e-04 -7.2908879740075146e-04 -7.3078417609687878e-04 -3.4507665075491668e-04 3.0292208854231992e-05 -2.1048015587169303e-04 -6.9779050206452819e-04 -2.2590146435668302e-04 7.0356014064672972e-04 1.1985365188411094e-03 4.2985732234936472e-04 -3.4517270120291163e-04 -3.3836920069947379e-04 4.3316448479206781e-04 1.2051581133578366e-03 6.9462332961160896e-04 -2.2780964993263618e-04 2.8860008252791156e-05 1.1992631271534322e-03 1.8232635031725001e-03 8.5533635379304992e-04 -9.1505256047178657e-05 -9.8331317928753749e-05 8.6385435365240364e-04 1.8360718963802954e-03 1.1989893354047115e-03 4.2613486816156336e-05 -3.5551389754530241e-04 4.2784101175126618e-04 8.7355279588021469e-04 2.5935079301337869e-04 -3.3016645392092928e-04 -3.4275180379399889e-04 2.6996157331412836e-04 8.6850446184286037e-04 4.3122971014009862e-04 -3.5595179214324788e-04 -7.2914016440336774e-04 -3.4145361467549738e-04 -9.4492862935734862e-05 -3.3520632495027871e-04 -5.8339248346641736e-04 -5.7729831441300774e-04 -3.4418791906046936e-04 -1.0046553803497432e-04 -3.4314829361940975e-04 -7.2391075898106672e-04 -7.3807056953316928e-04 -3.4087476940856259e-04 -1.0350740832000159e-04 -3.3558788582675660e-04 -5.8582553553518336e-04 -5.8476893303033425e-04 -3.3776631066448088e-04 -1.0357736151725156e-04 -3.3361199988909615e-04 -7.4352311414446976e-04 -3.5723906579898049e-04 4.3814909554397300e-04 8.5638133938736698e-04 2.5480183573217772e-04 -3.2919969361726569e-04 -3.4350317451682481e-04 2.5831760528264832e-04 8.5923881819746466e-04 4.3129099516577528e-04 -3.4177176471480476e-04 3.7156251997841859e-05 1.2042924599800688e-03 1.8310456821849048e-03 8.7286808503461624e-04 -1.0226510069159160e-04 -9.4703284471427118e-05 8.6912350327423464e-04 1.8300889655866988e-03 1.1895565984685668e-03 4.3487684385838839e-05 -2.1137587119481223e-04 6.9480333810553350e-04 1.2055836313470689e-03 4.3571217963039735e-04 -3.4392362688229552e-04 -3.3236423632306781e-04 4.2071258138329931e-04 1.1949576247378252e-03 6.9369423257839352e-04 -2.1776268490813263e-04 -6.8852124685803455e-04 -2.1466676091646316e-04 3.9732311488601194e-05 -3.4196378238933890e-04 -7.2492036329521985e-04 -7.3447356144762084e-04 -3.4407311658403873e-04 4.0279861447624875e-05 -2.2595049854636298e-04 -6.9363098496946513e-04 
</DataArray>
</PointData>
<CellData></CellData>
<Points>
<DataArray type="Float64" Name="Points" NumberOfComponents="3" format="ascii">
-0.818182 -0.818182 0.000000 -0.818182 -0.636364 0.000000 -0.818182 -0.454545 0.000000 -0.818182 -0.272727 0.000000 -0.818182 -0.090909 0.000000 -0.818182 0.090909 0.000000 -0.818182 0.272727 0.000000 -0.818182 0.454545 0.000000 -0.818182 0.636364 0.000000 -0.818182 0.818182 0.000000 -0.636364 -0.818182 0.000000 -0.636364 -0.636364 0.000000 -0.636364 -0.454545 0.000000 -0.636364 -0.272727 0.000000 -0.636364 -0.090909 0.000000 -0.636364 0.090909 0.000000 -0.636364 0.272727 0.000000 -0.636364 0.454545 0.000000 -0.636364 0.636364 0.000000 -0.636364 0.818182 0.000000 -0.454545 -0.818182 0.000000 -0.454545 -0.636364 0.000000 -0.454545 -0.454545 0.000000 -0.454545 -0.272727 0.000000 -0.454545 -0.090909 0.000000 -0.454545 0.090909 0.000000 -0.454545 0.272727 0.000000 -0.454545 0.454545 0.000000 -0.454545 0.636364 0.000000 -0.454545 0.818182 0.000000 -0.272727 -0.818182 0.000000 -0.272727 -0.636364 0.000000 -0.272727 -0.454545 0.000000 -0.272727 -0.272727 0.000000 -0.272727 -0.090909 0.000000 -0.272727 0.090909 0.000000 -0.272727 0.272727 0.000000 -0.272727 0.454545 0.000000 -0.272727 0.636364 0.000000 -0.272727 0.818182 0.000000 -0.090909 -0.818182 0.000000 -0.090909 -0.636364 0.000000 -0.090909 -0.454545 0.000000 -0.090909 -0.272727 0.000000 -0.090909 -0.090909 0.000000 -0.090909 0.090909 0.000000 -0.090909 0.272727 0.000000 -0.090909 0.454545 0.000000 -0.090909 0.636364 0.000000 -0.090909 0.818182 0.000000 0.090909 -0.818182 0.000000 0.090909 -0.636364 0.000000 0.090909 -0.454545 0.000000 0.090909 -0.272727 0.000000 0.090909 -0.090909 0.000000 0.090909 0.090909 0.000000 0.090909 0.272727 0.000000 0.090909 0.454545 0.000000 0.090909 0.636364 0.000000 0.090909 0.818182 0.000000 0.272727 -0.818182 0.000000 0.272727 -0.636364 0.000000 0.272727 -0.454545 0.000000 0.272727 -0.272727 0.000000 0.272727 -0.090909 0.000000 0.272727 0.090909 0.000000 0.272727 0.272727 0.000000 0.272727 0.454545 0.000000 0.272727 0.636364 0.000000 0.272727 0.818182 0.000000 0.454545 -0.818182 0.000000 0.454545 -0.636364 0.000000 0.454545 -0.454545 0.000000 0.454545 -0.272727 0.000000 0.454545 -0.090909 0.000000 0.454545 0.090909 0.000000 0.454545 0.272727 0.000000 0.454545 0.454545 0.000000 0.454545 0.636364 0.000000 0.454545 0.818182 0.000000 0.636364 -0.818182 0.000000 0.636364 -0.636364 0.000000 0.636364 -0.454545 0.000000 0.636364 -0.272727 0.000000 0.636364 -0.090909 0.000000 0.636364 0.090909 0.000000 0.636364 0.272727 0.000000 0.636364 0.454545 0.000000 0.636364 0.636364 0.000000 0.636364 0.818182 0.000000 0.818182 -0.818182 0.000000 0.818182 -0.636364 0.000000 0.818182 -0.454545 0.000000 0.818182 -0.272727 0.000000 0.818182 -0.090909 0.000000 0.818182 0.090909 0.000000 0.818182 0.272727 0.000000 0.818182 0.454545 0.000000 0.818182 0.636364 0.000000 0.818182 0.818182 0.000000 
</DataArray>
</Points>
</Piece>
</StructuredGrid>
</VTKFile>
