<VTKFile type="StructuredGrid" version="1.0" byte_order="LittleEndian" header_type="UInt64">
<StructuredGrid WholeExtent="0 9 0 9 0 0">
<Piece Extent="0 9 0 9 0 0">
<PointData Scalars="residual">
<DataArray type="Float64" Name="residual" format="ascii">
-2.3189543971880340e-03 -1.6749543032647217e-03 -1.2041861429450528e-03 -1.2126820781721403e-03 -1.2241951937990644e-03 -1.2281457377431460e-03 -1.2044058839265903e-03 -1.2080652163866390e-03 -1.6853711919636721e-03 -2.3253488494196376e-03 -1.6793663954464445e-03 -9.7793145870039323e-04 -5.0262082977449614e-04 -6.6065740514868569e-04 -8.3717298048787119e-04 -8.4191471586101112e-04 -6.5731396537129297e-04 -5.0499636505500767e-04 -9.8712666625135927e-04 -1.6788714517356994e-03 -1.1949050033226508e-03 -4.9482836416516428e-04 -5.6059898508020387e-05 -3.7932444515594195e-04 -6.9550488852262136e-04 -7.0502540098109920e-04 -3.6400723931010164e-04 -4.1561444700416103e-05 -4.9987459927691713e-04 -1.2007581409168890e-03 -1.2020451330848614e-03 -6.6152625491943881e-04 -3.7351602181759369e-04 -8.2263358104362394e-04 -1.2849244846314125e-03 -1.2783062834899302e-03 -8.3232420882934819e-04 -3.7400804346058962e-04 -6.6297154043522093e-04 -1.2031249089384452e-03 -1.2108284756623018e-03 -8.4602121759186442e-04 -6.9120347157378657e-04 -1.2835029398482255e-03 -1.8553764222697094e-03 -1.8558910763256265e-03 -1.2753852161279835e-03 -7.0624506488917074e-04 -8.4365962413823249e-04 -1.2172064553960180e-03 -1.2225931361696876e-03 -8.4298419970452870e-04 -7.0310998820481479e-04 -1.2853602437037448e-03 -1.8576083053883311e-03 -1.8521054404768440e-03 -1.2767251013442939e-03 -7.0675481094589461e-04 -8.3392501502282338e-04 -1.2290410199498787e-03 -1.2092667469866883e-03 -6.7514370006797539e-04 -3.6328071366919200e-04 -8.2948928924507666e-04 -1.2747977231441633e-03 -1.2861373228060719e-03 -8.1774023519988850e-04 -3.7793120077568489e-04 -6.7437763769953064e-04 -1.2165811481512599e-03 -1.2069910290483949e-03 -4.9802626674681771e-04 -5.2198678297392040e-05 -3.7207550070545835e-04 -6.9329167354142268e-04 -6.9447169117398512e-04 -3.6511317532795812e-04 -5.1662937996160840e-05 -4.9654859218953122e-04 -1.2046334100744276e-03 -1.6802912312340289e-03 -9.8236718678347025e-04 -5.0137938578598273e-04 -6.6708581473576452e-04 -8.3229743730720094e-04 -8.3531222897617607e-04 -6.6999954009109956e-04 -4.9670556285336641e-04 -9.7250811851829627e-04 -1.6885586140267198e-03 -2.3183482680072184e-03 -1.6851641440510760e-03 -1.2069558470531542e-03 -1.2017499699961184e-03 -1.2192090937394005e-03 -1.2243277001101095e-03 -1.2104336181294455e-03 -1.1933422994206740e-03 -1.6823174272741388e-03 -2.3186598325678730e-03 
</DataArray>
</PointData>
<CellData></CellData>
<Points>
<DataArray type="Float64" Name="Points" NumberOfComponents="3" format="ascii">
-0.818182 -0.818182 0.000000 -0.818182 -0.636364 0.000000 -0.818182 -0.454545 0.000000 -0.818182 -0.272727 0.000000 -0.818182 -0.090909 0.000000 -0.818182 0.090909 0.000000 -0.818182 0.272727 0.000000 -0.818182 0.454545 0.000000 -0.818182 0.636364 0.000000 -0.818182 0.818182 0.000000 -0.636364 -0.818182 0.000000 -0.636364 -0.636364 0.000000 -0.636364 -0.454545 0.000000 -0.636364 -0.272727 0.000000 -0.636364 -0.090909 0.000000 -0.636364 0.090909 0.000000 -0.636364 0.272727 0.000000 -0.636364 0.454545 0.000000 -0.636364 0.636364 0.000000 -0.636364 0.818182 0.000000 -0.454545 -0.818182 0.000000 -0.454545 -0.636364 0.000000 -0.454545 -0.454545 0.000000 -0.454545 -0.272727 0.000000 -0.454545 -0.090909 0.000000 -0.454545 0.090909 0.000000 -0.454545 0.272727 0.000000 -0.454545 0.454545 0.000000 -0.454545 0.636364 0.000000 -0.454545 0.818182 0.000000 -0.272727 -0.818182 0.000000 -0.272727 -0.636364 0.000000 -0.272727 -0.454545 0.000000 -0.272727 -0.272727 0.000000 -0.272727 -0.090909 0.000000 -0.272727 0.090909 0.000000 -0.272727 0.272727 0.000000 -0.272727 0.454545 0.000000 -0.272727 0.636364 0.000000 -0.272727 0.818182 0.000000 -0.090909 -0.818182 0.000000 -0.090909 -0.636364 0.000000 -0.090909 -0.454545 0.000000 -0.090909 -0.272727 0.000000 -0.090909 -0.090909 0.000000 -0.090909 0.090909 0.000000 -0.090909 0.272727 0.000000 -0.090909 0.454545 0.000000 -0.090909 0.636364 0.000000 -0.090909 0.818182 0.000000 0.090909 -0.818182 0.000000 0.090909 -0.636364 0.000000 0.090909 -0.454545 0.000000 0.090909 -0.272727 0.000000 0.090909 -0.090909 0.000000 0.090909 0.090909 0.000000 0.090909 0.272727 0.000000 0.090909 0.454545 0.000000 0.090909 0.636364 0.000000 0.090909 0.818182 0.000000 0.272727 -0.818182 0.000000 0.272727 -0.636364 0.000000 0.272727 -0.454545 0.000000 0.272727 -0.272727 0.000000 0.272727 -0.090909 0.000000 0.272727 0.090909 0.000000 0.272727 0.272727 0.000000 0.272727 0.454545 0.000000 0.272727 0.636364 0.000000 0.272727 0.818182 0.000000 0.454545 -0.818182 0.000000 0.454545 -0.636364 0.000000 0.454545 -0.454545 0.000000 0.454545 -0.272727 0.000000 0.454545 -0.090909 0.000000 0.454545 0.090909 0.000000 0.454545 0.272727 0.000000 0.454545 0.454545 0.000000 0.454545 0.636364 0.000000 0.454545 0.818182 0.000000 0.636364 -0.818182 0.000000 0.636364 -0.636364 0.000000 0.636364 -0.454545 0.000000 0.636364 -0.272727 0.000000 0.636364 -0.090909 0.000000 0.636364 0.090909 0.000000 0.636364 0.272727 0.000000 0.636364 0.454545 0.000000 0.636364 0.636364 0.000000 0.636364 0.818182 0.000000 0.818182 -0.818182 0.000000 0.818182 -0.636364 0.000000 0.818182 -0.454545 0.000000 0.818182 -0.272727 0.000000 0.818182 -0.090909 0.000000 0.818182 0.090909 0.000000 0.818182 0.272727 0.000000 0.818182 0.454545 0.000000 0.818182 0.636364 0.000000 0.818182 0.818182 0.000000 
</DataArray>
</Points>
</Piece>
</StructuredGrid>
</VTKFile>
