<VTKFile type="StructuredGrid" version="1.0" byte_order="LittleEndian" header_type="UInt64">
<StructuredGrid WholeExtent="0 9 0 9 0 0">
<Piece Extent="0 9 0 9 0 0">
<PointData Scalars="residual">
<DataArray type="Float64" Name="residual" format="ascii">
-3.4191377384721103e-04 -6.8483531932972538e-04 -9.6960394104449654e-04 -1.0082596499538282e-03 -1.0533196161701284e-03 -1.0443083931340686e-03 -1.0042893727178611e-03 -9.6165940948692973e-04 -6.9009339844881335e-04 -3.5559349878236754e-04 -6.9324134889771219e-04 -9.8106622839222619e-04 -1.1478625917897200e-03 -1.0082585338072542e-03 -8.6783843621226694e-04 -8.6847922708248662e-04 -1.0192899721615028e-03 -1.1386033802604986e-03 -9.7409772256008701e-04 -6.9380747418884884e-04 -9.6653547581344174e-04 -1.1415775886405152e-03 -1.2262578468088398e-03 -9.7250212015277671e-04 -7.0850310477210861e-04 -7.2073195889391616e-04 -9.6157560934885533e-04 -1.2228024824904489e-03 -1.1446149692443579e-03 -9.5914807832337898e-04 -1.0018265568214990e-03 -1.0200232176208936e-03 -9.6322433363098779e-04 -7.7682203121992241e-04 -5.7878667171508066e-04 -5.6784151854214968e-04 -7.7586766972285656e-04 -9.7025701968027518e-04 -1.0064712155726232e-03 -1.0128449331968173e-03 -1.0608514175355754e-03 -8.6647141897467153e-04 -7.0467441772552319e-04 -5.7868953212491907e-04 -4.4876363943450841e-04 -4.4911397340324614e-04 -5.8138382403822436e-04 -7.1866984020531148e-04 -8.7329409366311388e-04 -1.0455524073647799e-03 -1.0463565469958558e-03 -8.7345929739230006e-04 -7.0913028081006149e-04 -5.8028607196779387e-04 -4.4990539427828061e-04 -4.4178518323929189e-04 -5.7475012943464764e-04 -7.0666971905993491e-04 -8.8246290526219559e-04 -1.0441845011724578e-03 -1.0074620221767181e-03 -1.0157320387692986e-03 -9.6550572773103360e-04 -7.6955820166702861e-04 -5.7787675240450823e-04 -5.7895596398696569e-04 -7.7199686261648914e-04 -9.6770697145064262e-04 -1.0199407543851121e-03 -1.0131599406014804e-03 -9.6236034790893408e-04 -1.1436425529181785e-03 -1.2123222817678782e-03 -9.5720326644572334e-04 -7.1143197337137677e-04 -7.0733210818725578e-04 -9.6334353304828278e-04 -1.2272151709205505e-03 -1.1505529164233469e-03 -9.6491722272316893e-04 -7.0367515277740354e-04 -9.7015366172281637e-04 -1.1398264606254987e-03 -1.0026182651287517e-03 -8.6891886987939052e-04 -8.7642911088678561e-04 -1.0208863315098911e-03 -1.1433379050142384e-03 -9.7364093930504001e-04 -6.8878056162333806e-04 -3.4227346423963332e-04 -6.8906483064959563e-04 -9.7543172114957074e-04 -1.0166124062788791e-03 -1.0430826850048661e-03 -1.0460736306194349e-03 -1.0177887551706451e-03 -9.6486314336713440e-04 -6.9280163538231929e-04 -3.5146319060971263e-04 
</DataArray>
</PointData>
<CellData></CellData>
<Points>
<DataArray type="Float64" Name="Points" NumberOfComponents="3" format="ascii">
-0.818182 -0.818182 0.000000 -0.818182 -0.636364 0.000000 -0.818182 -0.454545 0.000000 -0.818182 -0.272727 0.000000 -0.818182 -0.090909 0.000000 -0.818182 0.090909 0.000000 -0.818182 0.272727 0.000000 -0.818182 0.454545 0.000000 -0.818182 0.636364 0.000000 -0.818182 0.818182 0.000000 -0.636364 -0.818182 0.000000 -0.636364 -0.636364 0.000000 -0.636364 -0.454545 0.000000 -0.636364 -0.272727 0.000000 -0.636364 -0.090909 0.000000 -0.636364 0.090909 0.000000 -0.636364 0.272727 0.000000 -0.636364 0.454545 0.000000 -0.636364 0.636364 0.000000 -0.636364 0.818182 0.000000 -0.454545 -0.818182 0.000000 -0.454545 -0.636364 0.000000 -0.454545 -0.454545 0.000000 -0.454545 -0.272727 0.000000 -0.454545 -0.090909 0.000000 -0.454545 0.090909 0.000000 -0.454545 0.272727 0.000000 -0.454545 0.454545 0.000000 -0.454545 0.636364 0.000000 -0.454545 0.818182 0.000000 -0.272727 -0.818182 0.000000 -0.272727 -0.636364 0.000000 -0.272727 -0.454545 0.000000 -0.272727 -0.272727 0.000000 -0.272727 -0.090909 0.000000 -0.272727 0.090909 0.000000 -0.272727 0.272727 0.000000 -0.272727 0.454545 0.000000 -0.272727 0.636364 0.000000 -0.272727 0.818182 0.000000 -0.090909 -0.818182 0.000000 -0.090909 -0.636364 0.000000 -0.090909 -0.454545 0.000000 -0.090909 -0.272727 0.000000 -0.090909 -0.090909 0.000000 -0.090909 0.090909 0.000000 -0.090909 0.272727 0.000000 -0.090909 0.454545 0.000000 -0.090909 0.636364 0.000000 -0.090909 0.818182 0.000000 0.090909 -0.818182 0.000000 0.090909 -0.636364 0.000000 0.090909 -0.454545 0.000000 0.090909 -0.272727 0.000000 0.090909 -0.090909 0.000000 0.090909 0.090909 0.000000 0.090909 0.272727 0.000000 0.090909 0.454545 0.000000 0.090909 0.636364 0.000000 0.090909 0.818182 0.000000 0.272727 -0.818182 0.000000 0.272727 -0.636364 0.000000 0.272727 -0.454545 0.000000 0.272727 -0.272727 0.000000 0.272727 -0.090909 0.000000 0.272727 0.090909 0.000000 0.272727 0.272727 0.000000 0.272727 0.454545 0.000000 0.272727 0.636364 0.000000 0.272727 0.818182 0.000000 0.454545 -0.818182 0.000000 0.454545 -0.636364 0.000000 0.454545 -0.454545 0.000000 0.454545 -0.272727 0.000000 0.454545 -0.090909 0.000000 0.454545 0.090909 0.000000 0.454545 0.272727 0.000000 0.454545 0.454545 0.000000 0.454545 0.636364 0.000000 0.454545 0.818182 0.000000 0.636364 -0.818182 0.000000 0.636364 -0.636364 0.000000 0.636364 -0.454545 0.000000 0.636364 -0.272727 0.000000 0.636364 -0.090909 0.000000 0.636364 0.090909 0.000000 0.636364 0.272727 0.000000 0.636364 0.454545 0.000000 0.636364 0.636364 0.000000 0.636364 0.818182 0.000000 0.818182 -0.818182 0.000000 0.818182 -0.636364 0.000000 0.818182 -0.454545 0.000000 0.818182 -0.272727 0.000000 0.818182 -0.090909 0.000000 0.818182 0.090909 0.000000 0.818182 0.272727 0.000000 0.818182 0.454545 0.000000 0.818182 0.636364 0.000000 0.818182 0.818182 0.000000 
</DataArray>
</Points>
</Piece>
</StructuredGrid>
</VTKFile>
