<VTKFile type="StructuredGrid" version="1.0" byte_order="LittleEndian" header_type="UInt64">
<StructuredGrid WholeExtent="0 9 0 9 0 0">
<Piece Extent="0 9 0 9 0 0">
<PointData Scalars="residual">
<DataArray type="Float64" Name="residual" format="ascii">
-2.7058365329070541e-04 4.7365885986330389e-04 8.1667133011114647e-04 -5.2285008440088043e-05 -9.1247675374050204e-04 -9.1798457568498660e-04 -4.0000032216891586e-05 8.1590521492982612e-04 4.8487743720481303e-04 -2.6170040602645304e-04 4.8210521020834816e-04 1.0324072746771122e-03 1.2739252945217772e-03 5.8140841241509540e-04 -9.0014736979038799e-05 -8.2926322411883309e-05 5.8660784983445677e-04 1.2659391469949468e-03 1.0295560943687180e-03 4.7711125861762569e-04 8.1545789316313493e-04 1.2700875559192211e-03 1.4613334572776589e-03 9.6920808586222168e-04 4.6409483878816563e-04 4.6390078840877831e-04 9.5943058921355408e-04 1.4750336056124974e-03 1.2582820752706910e-03 8.2856510836348124e-04 -3.8730968474576851e-05 5.9568247725606338e-04 9.6770386225827269e-04 5.5030782518435887e-04 1.3918563450029823e-04 1.3830267575155810e-04 5.4591622866749642e-04 9.6883163750905690e-04 5.9748472810068642e-04 -4.9085081916614912e-05 -9.1267081712759321e-04 -8.9252327619772625e-05 4.5794987766582590e-04 1.5095590310961718e-04 -1.8293782007660513e-04 -1.8036980137630569e-04 1.4513384607584175e-04 4.5118706116299592e-04 -8.3425557405491374e-05 -9.2331709735932557e-04 -9.1507392617020582e-04 -9.5902753213401078e-05 4.5016218427153080e-04 1.4616684672060930e-04 -1.6380964391432616e-04 -1.6793772659631453e-04 1.3645943632262475e-04 4.6345655478241023e-04 -9.2231192487543176e-05 -9.2075485365300069e-04 -4.0830170072610021e-05 5.9103661371868663e-04 9.6222050002683045e-04 5.5703614719710033e-04 1.4044303647772435e-04 1.3446725215388272e-04 5.5174467223674897e-04 9.5865782988655392e-04 5.9177165339015887e-04 -4.6244442627652819e-05 8.1385857770862723e-04 1.2558696654758974e-03 1.4695144336522637e-03 9.6044090829562525e-04 4.6410063391751186e-04 4.5289691858921397e-04 9.6795917430528202e-04 1.4779510582884057e-03 1.2587945772855717e-03 8.2260687125234070e-04 4.8670329959380311e-04 1.0206785115185594e-03 1.2595608061489480e-03 5.9555611579717536e-04 -7.9051997888577013e-05 -9.5222529086209148e-05 5.8940381581822771e-04 1.2625896983144097e-03 1.0197371249520311e-03 4.7851750987139372e-04 -2.6762921107400476e-04 4.9001302279461827e-04 8.2367214810389342e-04 -4.0515417752295946e-05 -9.2153586460433693e-04 -9.1405066094528572e-04 -5.3208684791798255e-05 8.1903466543679524e-04 4.8015193221532864e-04 -2.6960583517044497e-04 
</DataArray>
</PointData>
<CellData></CellData>
<Points>
<DataArray type="Float64" Name="Points" NumberOfComponents="3" format="ascii">
-0.818182 -0.818182 0.000000 -0.818182 -0.636364 0.000000 -0.818182 -0.454545 0.000000 -0.818182 -0.272727 0.000000 -0.818182 -0.090909 0.000000 -0.818182 0.090909 0.000000 -0.818182 0.272727 0.000000 -0.818182 0.454545 0.000000 -0.818182 0.636364 0.000000 -0.818182 0.818182 0.000000 -0.636364 -0.818182 0.000000 -0.636364 -0.636364 0.000000 -0.636364 -0.454545 0.000000 -0.636364 -0.272727 0.000000 -0.636364 -0.090909 0.000000 -0.636364 0.090909 0.000000 -0.636364 0.272727 0.000000 -0.636364 0.454545 0.000000 -0.636364 0.636364 0.000000 -0.636364 0.818182 0.000000 -0.454545 -0.818182 0.000000 -0.454545 -0.636364 0.000000 -0.454545 -0.454545 0.000000 -0.454545 -0.272727 0.000000 -0.454545 -0.090909 0.000000 -0.454545 0.090909 0.000000 -0.454545 0.272727 0.000000 -0.454545 0.454545 0.000000 -0.454545 0.636364 0.000000 -0.454545 0.818182 0.000000 -0.272727 -0.818182 0.000000 -0.272727 -0.636364 0.000000 -0.272727 -0.454545 0.000000 -0.272727 -0.272727 0.000000 -0.272727 -0.090909 0.000000 -0.272727 0.090909 0.000000 -0.272727 0.272727 0.000000 -0.272727 0.454545 0.000000 -0.272727 0.636364 0.000000 -0.272727 0.818182 0.000000 -0.090909 -0.818182 0.000000 -0.090909 -0.636364 0.000000 -0.090909 -0.454545 0.000000 -0.090909 -0.272727 0.000000 -0.090909 -0.090909 0.000000 -0.090909 0.090909 0.000000 -0.090909 0.272727 0.000000 -0.090909 0.454545 0.000000 -0.090909 0.636364 0.000000 -0.090909 0.818182 0.000000 0.090909 -0.818182 0.000000 0.090909 -0.636364 0.000000 0.090909 -0.454545 0.000000 0.090909 -0.272727 0.000000 0.090909 -0.090909 0.000000 0.090909 0.090909 0.000000 0.090909 0.272727 0.000000 0.090909 0.454545 0.000000 0.090909 0.636364 0.000000 0.090909 0.818182 0.000000 0.272727 -0.818182 0.000000 0.272727 -0.636364 0.000000 0.272727 -0.454545 0.000000 0.272727 -0.272727 0.000000 0.272727 -0.090909 0.000000 0.272727 0.090909 0.000000 0.272727 0.272727 0.000000 0.272727 0.454545 0.000000 0.272727 0.636364 0.000000 0.272727 0.818182 0.000000 0.454545 -0.818182 0.000000 0.454545 -0.636364 0.000000 0.454545 -0.454545 0.000000 0.454545 -0.272727 0.000000 0.454545 -0.090909 0.000000 0.454545 0.090909 0.000000 0.454545 0.272727 0.000000 0.454545 0.454545 0.000000 0.454545 0.636364 0.000000 0.454545 0.818182 0.000000 0.636364 -0.818182 0.000000 0.636364 -0.636364 0.000000 0.636364 -0.454545 0.000000 0.636364 -0.272727 0.000000 0.636364 -0.090909 0.000000 0.636364 0.090909 0.000000 0.636364 0.272727 0.000000 0.636364 0.454545 0.000000 0.636364 0.636364 0.000000 0.636364 0.818182 0.000000 0.818182 -0.818182 0.000000 0.818182 -0.636364 0.000000 0.818182 -0.454545 0.000000 0.818182 -0.272727 0.000000 0.818182 -0.090909 0.000000 0.818182 0.090909 0.000000 0.818182 0.272727 0.000000 0.818182 0.454545 0.000000 0.818182 0.636364 0.000000 0.818182 0.818182 0.000000 
</DataArray>
</Points>
</Piece>
</StructuredGrid>
</VTKFile>
