<VTKFile type="StructuredGrid" version="1.0" byte_order="LittleEndian" header_type="UInt64">
<StructuredGrid WholeExtent="0 9 0 9 0 0">
<Piece Extent="0 9 0 9 0 0">
<PointData Scalars="residual">
<DataArray type="Float64" Name="residual" format="ascii">
9.9134607811695794e-06 4.0371572079174120e-04 7.1176976647797582e-04 7.2769066527693729e-04 7.6926690014952198e-04 7.5390969285330737e-04 7.4579724967206197e-04 7.1317112523159188e-04 4.0320425763892744e-04 1.7070644251307790e-05 4.0356774021255669e-04 -1.5599380918751744e-04 -5.0709593246217599e-04 -2.6626728755695540e-04 -1.0378108265480038e-05 -1.5161091468963994e-05 -2.6368444090807148e-04 -5.1209274371439781e-04 -1.6431730714210144e-04 4.0211669130611576e-04 7.1076903681083301e-04 -5.2312218458467393e-04 -1.3319273346205137e-03 -8.8479608542820854e-04 -4.3886267286751858e-04 -4.4894059498148692e-04 -8.8889083405630518e-04 -1.3155186112942426e-03 -5.0591948101647542e-04 7.1488521533401989e-04 7.3535507149401647e-04 -2.6248281542510816e-04 -8.8586695777638632e-04 -3.5496623662870964e-04 1.7853747751425675e-04 1.7972320444317475e-04 -3.4459110463336360e-04 -8.9141098713722659e-04 -2.6213145150972162e-04 7.3419305412098131e-04 7.5392370744824591e-04 -2.2983071038261069e-05 -4.5011231330516384e-04 1.7777761969819342e-04 8.0920701215044574e-04 8.0760675812161040e-04 1.7021687916187953e-04 -4.4791605472470353e-04 -1.6686156979923115e-05 7.5936098502009473e-04 7.5596355514149366e-04 -1.9070809203792886e-05 -4.5419211782267606e-04 1.8510358762773623e-04 8.1430655115152881e-04 8.1511855889511344e-04 1.7716641068436702e-04 -4.5097788590179634e-04 -1.5833181393463437e-05 7.5702054889755215e-04 7.3645386023523263e-04 -2.6390189780803840e-04 -8.7869944330339848e-04 -3.5906770507855047e-04 1.8080609127889714e-04 1.8171087325294551e-04 -3.4870993777389066e-04 -8.7797297809513730e-04 -2.6958469886251106e-04 7.4065986968011120e-04 7.0736836366875298e-04 -5.1411715212928023e-04 -1.3214297709941976e-03 -8.8187115350654060e-04 -4.5359906362611897e-04 -4.4777531358490032e-04 -8.9103823119536475e-04 -1.3259487491625505e-03 -5.1135394412272443e-04 7.0618195558805850e-04 3.9981416919227745e-04 -1.5694812672973745e-04 -5.1883169231467258e-04 -2.6450258396621979e-04 -1.5501975598377488e-05 -2.4842657297460997e-05 -2.7361814693376875e-04 -5.1473091080223455e-04 -1.6284679664593880e-04 3.9932571145176888e-04 2.3359247413443605e-05 4.1460204735709570e-04 7.0966440367868124e-04 7.4285228880781925e-04 7.6661644157792388e-04 7.7279130189112071e-04 7.2963301655499906e-04 7.0492531933813787e-04 4.1011308505980223e-04 7.2992470938199050e-06 
</DataArray>
</PointData>
<CellData></CellData>
<Points>
<DataArray type="Float64" Name="Points" NumberOfComponents="3" format="ascii">
-0.818182 -0.818182 0.000000 -0.818182 -0.636364 0.000000 -0.818182 -0.454545 0.000000 -0.818182 -0.272727 0.000000 -0.818182 -0.090909 0.000000 -0.818182 0.090909 0.000000 -0.818182 0.272727 0.000000 -0.818182 0.454545 0.000000 -0.818182 0.636364 0.000000 -0.818182 0.818182 0.000000 -0.636364 -0.818182 0.000000 -0.636364 -0.636364 0.000000 -0.636364 -0.454545 0.000000 -0.636364 -0.272727 0.000000 -0.636364 -0.090909 0.000000 -0.636364 0.090909 0.000000 -0.636364 0.272727 0.000000 -0.636364 0.454545 0.000000 -0.636364 0.636364 0.000000 -0.636364 0.818182 0.000000 -0.454545 -0.818182 0.000000 -0.454545 -0.636364 0.000000 -0.454545 -0.454545 0.000000 -0.454545 -0.272727 0.000000 -0.454545 -0.090909 0.000000 -0.454545 0.090909 0.000000 -0.454545 0.272727 0.000000 -0.454545 0.454545 0.000000 -0.454545 0.636364 0.000000 -0.454545 0.818182 0.000000 -0.272727 -0.818182 0.000000 -0.272727 -0.636364 0.000000 -0.272727 -0.454545 0.000000 -0.272727 -0.272727 0.000000 -0.272727 -0.090909 0.000000 -0.272727 0.090909 0.000000 -0.272727 0.272727 0.000000 -0.272727 0.454545 0.000000 -0.272727 0.636364 0.000000 -0.272727 0.818182 0.000000 -0.090909 -0.818182 0.000000 -0.090909 -0.636364 0.000000 -0.090909 -0.454545 0.000000 -0.090909 -0.272727 0.000000 -0.090909 -0.090909 0.000000 -0.090909 0.090909 0.000000 -0.090909 0.272727 0.000000 -0.090909 0.454545 0.000000 -0.090909 0.636364 0.000000 -0.090909 0.818182 0.000000 0.090909 -0.818182 0.000000 0.090909 -0.636364 0.000000 0.090909 -0.454545 0.000000 0.090909 -0.272727 0.000000 0.090909 -0.090909 0.000000 0.090909 0.090909 0.000000 0.090909 0.272727 0.000000 0.090909 0.454545 0.000000 0.090909 0.636364 0.000000 0.090909 0.818182 0.000000 0.272727 -0.818182 0.000000 0.272727 -0.636364 0.000000 0.272727 -0.454545 0.000000 0.272727 -0.272727 0.000000 0.272727 -0.090909 0.000000 0.272727 0.090909 0.000000 0.272727 0.272727 0.000000 0.272727 0.454545 0.000000 0.272727 0.636364 0.000000 0.272727 0.818182 0.000000 0.454545 -0.818182 0.000000 0.454545 -0.636364 0.000000 0.454545 -0.454545 0.000000 0.454545 -0.272727 0.000000 0.454545 -0.090909 0.000000 0.454545 0.090909 0.000000 0.454545 0.272727 0.000000 0.454545 0.454545 0.000000 0.454545 0.636364 0.000000 0.454545 0.818182 0.000000 0.636364 -0.818182 0.000000 0.636364 -0.636364 0.000000 0.636364 -0.454545 0.000000 0.636364 -0.272727 0.000000 0.636364 -0.090909 0.000000 0.636364 0.090909 0.000000 0.636364 0.272727 0.000000 0.636364 0.454545 0.000000 0.636364 0.636364 0.000000 0.636364 0.818182 0.000000 0.818182 -0.818182 0.000000 0.818182 -0.636364 0.000000 0.818182 -0.454545 0.000000 0.818182 -0.272727 0.000000 0.818182 -0.090909 0.000000 0.818182 0.090909 0.000000 0.818182 0.272727 0.000000 0.818182 0.454545 0.000000 0.818182 0.636364 0.000000 0.818182 0.818182 0.000000 
</DataArray>
</Points>
</Piece>
</StructuredGrid>
</VTKFile>
