<VTKFile type="StructuredGrid" version="1.0" byte_order="LittleEndian" header_type="UInt64">
<StructuredGrid WholeExtent="0 9 0 9 0 0">
<Piece Extent="0 9 0 9 0 0">
<PointData Scalars="residual">
<DataArray type="Float64" Name="residual" format="ascii">
1.2204263452797581e-03 1.1796895786263793e-03 1.1612195183703276e-03 1.2659970754503329e-03 1.3740653415753846e-03 1.3862673910034619e-03 1.2669714368609773e-03 1.1587177196221397e-03 1.1696913254732578e-03 1.2296559193501885e-03 1.1831855010270664e-03 7.9411985723282339e-04 5.0084342079135050e-04 4.5049933048677167e-04 3.8398431326211804e-04 3.8817024539228220e-04 4.4714399223564315e-04 5.1981602307334725e-04 8.1126902174789601e-04 1.1678027576366356e-03 1.1622350349110204e-03 5.1776315594455769e-04 -2.1576761248813699e-05 -2.2386786080933526e-04 -4.1405880128625970e-04 -4.2941660761318216e-04 -2.2783345552251661e-04 -3.4813742681119586e-05 5.0090659918544276e-04 1.1676019130527518e-03 1.2726535103906641e-03 4.5055887174542345e-04 -2.3285491732766023e-04 -4.5592895046211307e-04 -6.8606679185347595e-04 -6.8420731459880712e-04 -4.5040351708646419e-04 -2.3477886727217914e-04 4.5325942728034578e-04 1.2623152959529485e-03 1.3873210389925669e-03 3.8267466751464897e-04 -4.1929125182235162e-04 -6.7849355667107692e-04 -9.3479759221095932e-04 -9.4148633719096011e-04 -6.7797182461711274e-04 -4.2342601375532259e-04 3.8918016660807481e-04 1.3816396996721790e-03 1.3822858820942594e-03 3.8552532771810900e-04 -4.2688732167885449e-04 -6.8049402980525312e-04 -9.4455884968717833e-04 -9.3459450231286726e-04 -6.8873709457793579e-04 -4.3187965904211041e-04 3.8685764269061340e-04 1.3828636490405865e-03 1.2746664425302779e-03 4.4661436766880828e-04 -2.2269290872158152e-04 -4.5329232978287559e-04 -6.7535836931791396e-04 -6.8373549832891241e-04 -4.5688769227683959e-04 -2.2518189041317860e-04 4.4272538566648978e-04 1.2725390408279858e-03 1.1679157364753296e-03 5.1595448906339774e-04 -3.2710906920988859e-05 -2.1766840365137520e-04 -4.2067171039995334e-04 -4.1507763728083208e-04 -2.1847480733905213e-04 -1.8511029189852493e-05 5.0260603620698365e-04 1.1645483073300703e-03 1.1663959028682044e-03 7.9568126082865827e-04 5.0708968478463358e-04 4.5327129493720909e-04 3.8292886174599080e-04 3.8765445899896327e-04 4.4221834732793060e-04 5.1926069357143608e-04 8.0339633008114379e-04 1.1804410306877223e-03 1.2232584253658585e-03 1.1676232118584379e-03 1.1581461751888305e-03 1.2691838387143036e-03 1.3838342890796155e-03 1.3721570299131708e-03 1.2783583502892402e-03 1.1681527653282871e-03 1.1677596930868700e-03 1.2204118657681735e-03 
</DataArray>
</PointData>
<CellData></CellData>
<Points>
<DataArray type="Float64" Name="Points" NumberOfComponents="3" format="ascii">
-0.818182 -0.818182 0.000000 -0.818182 -0.636364 0.000000 -0.818182 -0.454545 0.000000 -0.818182 -0.272727 0.000000 -0.818182 -0.090909 0.000000 -0.818182 0.090909 0.000000 -0.818182 0.272727 0.000000 -0.818182 0.454545 0.000000 -0.818182 0.636364 0.000000 -0.818182 0.818182 0.000000 -0.636364 -0.818182 0.000000 -0.636364 -0.636364 0.000000 -0.636364 -0.454545 0.000000 -0.636364 -0.272727 0.000000 -0.636364 -0.090909 0.000000 -0.636364 0.090909 0.000000 -0.636364 0.272727 0.000000 -0.636364 0.454545 0.000000 -0.636364 0.636364 0.000000 -0.636364 0.818182 0.000000 -0.454545 -0.818182 0.000000 -0.454545 -0.636364 0.000000 -0.454545 -0.454545 0.000000 -0.454545 -0.272727 0.000000 -0.454545 -0.090909 0.000000 -0.454545 0.090909 0.000000 -0.454545 0.272727 0.000000 -0.454545 0.454545 0.000000 -0.454545 0.636364 0.000000 -0.454545 0.818182 0.000000 -0.272727 -0.818182 0.000000 -0.272727 -0.636364 0.000000 -0.272727 -0.454545 0.000000 -0.272727 -0.272727 0.000000 -0.272727 -0.090909 0.000000 -0.272727 0.090909 0.000000 -0.272727 0.272727 0.000000 -0.272727 0.454545 0.000000 -0.272727 0.636364 0.000000 -0.272727 0.818182 0.000000 -0.090909 -0.818182 0.000000 -0.090909 -0.636364 0.000000 -0.090909 -0.454545 0.000000 -0.090909 -0.272727 0.000000 -0.090909 -0.090909 0.000000 -0.090909 0.090909 0.000000 -0.090909 0.272727 0.000000 -0.090909 0.454545 0.000000 -0.090909 0.636364 0.000000 -0.090909 0.818182 0.000000 0.090909 -0.818182 0.000000 0.090909 -0.636364 0.000000 0.090909 -0.454545 0.000000 0.090909 -0.272727 0.000000 0.090909 -0.090909 0.000000 0.090909 0.090909 0.000000 0.090909 0.272727 0.000000 0.090909 0.454545 0.000000 0.090909 0.636364 0.000000 0.090909 0.818182 0.000000 0.272727 -0.818182 0.000000 0.272727 -0.636364 0.000000 0.272727 -0.454545 0.000000 0.272727 -0.272727 0.000000 0.272727 -0.090909 0.000000 0.272727 0.090909 0.000000 0.272727 0.272727 0.000000 0.272727 0.454545 0.000000 0.272727 0.636364 0.000000 0.272727 0.818182 0.000000 0.454545 -0.818182 0.000000 0.454545 -0.636364 0.000000 0.454545 -0.454545 0.000000 0.454545 -0.272727 0.000000 0.454545 -0.090909 0.000000 0.454545 0.090909 0.000000 0.454545 0.272727 0.000000 0.454545 0.454545 0.000000 0.454545 0.636364 0.000000 0.454545 0.818182 0.000000 0.636364 -0.818182 0.000000 0.636364 -0.636364 0.000000 0.636364 -0.454545 0.000000 0.636364 -0.272727 0.000000 0.636364 -0.090909 0.000000 0.636364 0.090909 0.000000 0.636364 0.272727 0.000000 0.636364 0.454545 0.000000 0.636364 0.636364 0.000000 0.636364 0.818182 0.000000 0.818182 -0.818182 0.000000 0.818182 -0.636364 0.000000 0.818182 -0.454545 0.000000 0.818182 -0.272727 0.000000 0.818182 -0.090909 0.000000 0.818182 0.090909 0.000000 0.818182 0.272727 0.000000 0.818182 0.454545 0.000000 0.818182 0.636364 0.000000 0.818182 0.818182 0.000000 
</DataArray>
</Points>
</Piece>
</StructuredGrid>
</VTKFile>
