<VTKFile type="StructuredGrid" version="1.0" byte_order="LittleEndian" header_type="UInt64">
<StructuredGrid WholeExtent="0 9 0 9 0 0">
<Piece Extent="0 9 0 9 0 0">
<PointData Scalars="residual">
<DataArray type="Float64" Name="residual" format="ascii">
1.3372215045968166e-03 5.9906130042039355e-04 5.6932126992334173e-06 -1.8770126937639724e-04 -3.8300522270857864e-04 -3.8984954755412905e-04 -1.8563088208582625e-04 -9.3156562206049565e-07 6.0889804381845459e-04 1.3293083335533932e-03 6.1121378110319665e-04 -1.0240801677869173e-04 -5.7017208038978931e-04 -3.6759757237380948e-04 -1.6737490119297498e-04 -1.6794164648088571e-04 -3.6235514821966633e-04 -5.6733767096536769e-04 -9.5395443280589173e-05 6.0845882817873575e-04 -3.5637808635741522e-06 -5.6844624699630645e-04 -8.8114349622946272e-04 -3.8025503900396642e-04 1.0031952169979944e-04 9.4348201672582455e-05 -3.8292599129281226e-04 -8.8287691087952545e-04 -5.6699260608490199e-04 5.6561867548717004e-06 -1.8361664464410605e-04 -3.7628602724529281e-04 -3.9650440941666485e-04 6.5835519896081246e-05 5.3264387244954595e-04 5.1776098781144801e-04 6.2174369353192038e-05 -3.8591375116027796e-04 -3.6702197850839533e-04 -1.9452302651350693e-04 -3.8705621362222819e-04 -1.7755408243329848e-04 1.0924009231156728e-04 5.2298789813901188e-04 9.5659522902613939e-04 9.4787244784082930e-04 5.2461590263396841e-04 1.0256313652751928e-04 -1.6485658986540463e-04 -3.9232322830169740e-04 -3.9216806703206092e-04 -1.7739959689424200e-04 1.0313110577349523e-04 5.2176582796781279e-04 9.5298593937012677e-04 9.5918631740487398e-04 5.2553484491890332e-04 9.4871800433165773e-05 -1.6448301866143130e-04 -3.8724515557487463e-04 -1.9260391028081423e-04 -3.7540259396706319e-04 -3.8391848070132859e-04 7.4973437250963615e-05 5.2136995526592782e-04 5.2185356037453244e-04 7.3048330952595227e-05 -3.9318389066694891e-04 -3.7212119506873568e-04 -2.0142550467036830e-04 6.6532915387980049e-06 -5.6837495792493855e-04 -8.7828758137756821e-04 -3.8987025251927920e-04 1.0184066768936968e-04 9.9131744789960306e-05 -3.7899212117150738e-04 -8.8417440985271063e-04 -5.6632508904841134e-04 1.0975021415469098e-05 5.9636939837225383e-04 -8.6830674837411193e-05 -5.6383601321187936e-04 -3.7807298700178534e-04 -1.7626727338069696e-04 -1.6995982161526071e-04 -3.6474388979760826e-04 -5.6109073816312761e-04 -9.1195621597959381e-05 6.0586566697485526e-04 1.3375216906294967e-03 6.0049220983788036e-04 3.9339758759722801e-06 -1.9631036329477609e-04 -3.9643128948768256e-04 -3.8231759084014858e-04 -1.9530659629874488e-04 5.6033421734630329e-06 6.1213869626235585e-04 1.3313713319389477e-03 
</DataArray>
</PointData>
<CellData></CellData>
<Points>
<DataArray type="Float64" Name="Points" NumberOfComponents="3" format="ascii">
-0.818182 -0.818182 0.000000 -0.818182 -0.636364 0.000000 -0.818182 -0.454545 0.000000 -0.818182 -0.272727 0.000000 -0.818182 -0.090909 0.000000 -0.818182 0.090909 0.000000 -0.818182 0.272727 0.000000 -0.818182 0.454545 0.000000 -0.818182 0.636364 0.000000 -0.818182 0.818182 0.000000 -0.636364 -0.818182 0.000000 -0.636364 -0.636364 0.000000 -0.636364 -0.454545 0.000000 -0.636364 -0.272727 0.000000 -0.636364 -0.090909 0.000000 -0.636364 0.090909 0.000000 -0.636364 0.272727 0.000000 -0.636364 0.454545 0.000000 -0.636364 0.636364 0.000000 -0.636364 0.818182 0.000000 -0.454545 -0.818182 0.000000 -0.454545 -0.636364 0.000000 -0.454545 -0.454545 0.000000 -0.454545 -0.272727 0.000000 -0.454545 -0.090909 0.000000 -0.454545 0.090909 0.000000 -0.454545 0.272727 0.000000 -0.454545 0.454545 0.000000 -0.454545 0.636364 0.000000 -0.454545 0.818182 0.000000 -0.272727 -0.818182 0.000000 -0.272727 -0.636364 0.000000 -0.272727 -0.454545 0.000000 -0.272727 -0.272727 0.000000 -0.272727 -0.090909 0.000000 -0.272727 0.090909 0.000000 -0.272727 0.272727 0.000000 -0.272727 0.454545 0.000000 -0.272727 0.636364 0.000000 -0.272727 0.818182 0.000000 -0.090909 -0.818182 0.000000 -0.090909 -0.636364 0.000000 -0.090909 -0.454545 0.000000 -0.090909 -0.272727 0.000000 -0.090909 -0.090909 0.000000 -0.090909 0.090909 0.000000 -0.090909 0.272727 0.000000 -0.090909 0.454545 0.000000 -0.090909 0.636364 0.000000 -0.090909 0.818182 0.000000 0.090909 -0.818182 0.000000 0.090909 -0.636364 0.000000 0.090909 -0.454545 0.000000 0.090909 -0.272727 0.000000 0.090909 -0.090909 0.000000 0.090909 0.090909 0.000000 0.090909 0.272727 0.000000 0.090909 0.454545 0.000000 0.090909 0.636364 0.000000 0.090909 0.818182 0.000000 0.272727 -0.818182 0.000000 0.272727 -0.636364 0.000000 0.272727 -0.454545 0.000000 0.272727 -0.272727 0.000000 0.272727 -0.090909 0.000000 0.272727 0.090909 0.000000 0.272727 0.272727 0.000000 0.272727 0.454545 0.000000 0.272727 0.636364 0.000000 0.272727 0.818182 0.000000 0.454545 -0.818182 0.000000 0.454545 -0.636364 0.000000 0.454545 -0.454545 0.000000 0.454545 -0.272727 0.000000 0.454545 -0.090909 0.000000 0.454545 0.090909 0.000000 0.454545 0.272727 0.000000 0.454545 0.454545 0.000000 0.454545 0.636364 0.000000 0.454545 0.818182 0.000000 0.636364 -0.818182 0.000000 0.636364 -0.636364 0.000000 0.636364 -0.454545 0.000000 0.636364 -0.272727 0.000000 0.636364 -0.090909 0.000000 0.636364 0.090909 0.000000 0.636364 0.272727 0.000000 0.636364 0.454545 0.000000 0.636364 0.636364 0.000000 0.636364 0.818182 0.000000 0.818182 -0.818182 0.000000 0.818182 -0.636364 0.000000 0.818182 -0.454545 0.000000 0.818182 -0.272727 0.000000 0.818182 -0.090909 0.000000 0.818182 0.090909 0.000000 0.818182 0.272727 0.000000 0.818182 0.454545 0.000000 0.818182 0.636364 0.000000 0.818182 0.818182 0.000000 
</DataArray>
</Points>
</Piece>
</StructuredGrid>
</VTKFile>
